V -t * -v 1.0a5 -a 0
A -t * -n 1 -p 0 -o 0x7fffffff -c 30 -a 1
A -t * -h 1 -m 1073741823 -s 0
n -t * -a 0 -s 0 -S UP -v circle -c black -i black
n -t * -a 1 -s 1 -S UP -v circle -c black -i black
n -t * -a 2 -s 2 -S UP -v circle -c black -i black
n -t * -a 3 -s 3 -S UP -v circle -c black -i black
l -t * -s 0 -d 2 -S UP -r 2000000 -D 0.01 -c black
l -t * -s 1 -d 2 -S UP -r 2000000 -D 0.01 -c black
l -t * -s 2 -d 3 -S UP -r 400000 -D 0.01 -c black
+ -t 0.6 -s 1 -d 2 -p tcp -e 40 -c 0 -i 0 -a 0 -x {1.0 3.1 0 ------- null}
- -t 0.6 -s 1 -d 2 -p tcp -e 40 -c 0 -i 0 -a 0 -x {1.0 3.1 0 ------- null}
h -t 0.6 -s 1 -d 2 -p tcp -e 40 -c 0 -i 0 -a 0 -x {1.0 3.1 -1 ------- null}
r -t 0.61016 -s 1 -d 2 -p tcp -e 40 -c 0 -i 0 -a 0 -x {1.0 3.1 0 ------- null}
+ -t 0.61016 -s 2 -d 3 -p tcp -e 40 -c 0 -i 0 -a 0 -x {1.0 3.1 0 ------- null}
- -t 0.61016 -s 2 -d 3 -p tcp -e 40 -c 0 -i 0 -a 0 -x {1.0 3.1 0 ------- null}
h -t 0.61016 -s 2 -d 3 -p tcp -e 40 -c 0 -i 0 -a 0 -x {1.0 3.1 -1 ------- null}
r -t 0.62096 -s 2 -d 3 -p tcp -e 40 -c 0 -i 0 -a 0 -x {1.0 3.1 0 ------- null}
+ -t 0.62096 -s 3 -d 2 -p ack -e 40 -c 0 -i 1 -a 0 -x {3.1 1.0 0 ------- null}
- -t 0.62096 -s 3 -d 2 -p ack -e 40 -c 0 -i 1 -a 0 -x {3.1 1.0 0 ------- null}
h -t 0.62096 -s 3 -d 2 -p ack -e 40 -c 0 -i 1 -a 0 -x {3.1 1.0 -1 ------- null}
r -t 0.63176 -s 3 -d 2 -p ack -e 40 -c 0 -i 1 -a 0 -x {3.1 1.0 0 ------- null}
+ -t 0.63176 -s 2 -d 1 -p ack -e 40 -c 0 -i 1 -a 0 -x {3.1 1.0 0 ------- null}
- -t 0.63176 -s 2 -d 1 -p ack -e 40 -c 0 -i 1 -a 0 -x {3.1 1.0 0 ------- null}
h -t 0.63176 -s 2 -d 1 -p ack -e 40 -c 0 -i 1 -a 0 -x {3.1 1.0 -1 ------- null}
r -t 0.64192 -s 2 -d 1 -p ack -e 40 -c 0 -i 1 -a 0 -x {3.1 1.0 0 ------- null}
+ -t 0.64192 -s 1 -d 2 -p tcp -e 1040 -c 0 -i 2 -a 0 -x {1.0 3.1 1 ------- null}
- -t 0.64192 -s 1 -d 2 -p tcp -e 1040 -c 0 -i 2 -a 0 -x {1.0 3.1 1 ------- null}
h -t 0.64192 -s 1 -d 2 -p tcp -e 1040 -c 0 -i 2 -a 0 -x {1.0 3.1 -1 ------- null}
+ -t 0.64192 -s 1 -d 2 -p tcp -e 1040 -c 0 -i 3 -a 0 -x {1.0 3.1 2 ------- null}
- -t 0.64608 -s 1 -d 2 -p tcp -e 1040 -c 0 -i 3 -a 0 -x {1.0 3.1 2 ------- null}
h -t 0.64608 -s 1 -d 2 -p tcp -e 1040 -c 0 -i 3 -a 0 -x {1.0 3.1 -1 ------- null}
r -t 0.65608 -s 1 -d 2 -p tcp -e 1040 -c 0 -i 2 -a 0 -x {1.0 3.1 1 ------- null}
+ -t 0.65608 -s 2 -d 3 -p tcp -e 1040 -c 0 -i 2 -a 0 -x {1.0 3.1 1 ------- null}
- -t 0.65608 -s 2 -d 3 -p tcp -e 1040 -c 0 -i 2 -a 0 -x {1.0 3.1 1 ------- null}
h -t 0.65608 -s 2 -d 3 -p tcp -e 1040 -c 0 -i 2 -a 0 -x {1.0 3.1 -1 ------- null}
r -t 0.66024 -s 1 -d 2 -p tcp -e 1040 -c 0 -i 3 -a 0 -x {1.0 3.1 2 ------- null}
+ -t 0.66024 -s 2 -d 3 -p tcp -e 1040 -c 0 -i 3 -a 0 -x {1.0 3.1 2 ------- null}
- -t 0.67688 -s 2 -d 3 -p tcp -e 1040 -c 0 -i 3 -a 0 -x {1.0 3.1 2 ------- null}
h -t 0.67688 -s 2 -d 3 -p tcp -e 1040 -c 0 -i 3 -a 0 -x {1.0 3.1 -1 ------- null}
r -t 0.68688 -s 2 -d 3 -p tcp -e 1040 -c 0 -i 2 -a 0 -x {1.0 3.1 1 ------- null}
+ -t 0.68688 -s 3 -d 2 -p ack -e 40 -c 0 -i 4 -a 0 -x {3.1 1.0 1 ------- null}
- -t 0.68688 -s 3 -d 2 -p ack -e 40 -c 0 -i 4 -a 0 -x {3.1 1.0 1 ------- null}
h -t 0.68688 -s 3 -d 2 -p ack -e 40 -c 0 -i 4 -a 0 -x {3.1 1.0 -1 ------- null}
r -t 0.69768 -s 3 -d 2 -p ack -e 40 -c 0 -i 4 -a 0 -x {3.1 1.0 1 ------- null}
+ -t 0.69768 -s 2 -d 1 -p ack -e 40 -c 0 -i 4 -a 0 -x {3.1 1.0 1 ------- null}
- -t 0.69768 -s 2 -d 1 -p ack -e 40 -c 0 -i 4 -a 0 -x {3.1 1.0 1 ------- null}
h -t 0.69768 -s 2 -d 1 -p ack -e 40 -c 0 -i 4 -a 0 -x {3.1 1.0 -1 ------- null}
r -t 0.70768 -s 2 -d 3 -p tcp -e 1040 -c 0 -i 3 -a 0 -x {1.0 3.1 2 ------- null}
+ -t 0.70768 -s 3 -d 2 -p ack -e 40 -c 0 -i 5 -a 0 -x {3.1 1.0 2 ------- null}
- -t 0.70768 -s 3 -d 2 -p ack -e 40 -c 0 -i 5 -a 0 -x {3.1 1.0 2 ------- null}
h -t 0.70768 -s 3 -d 2 -p ack -e 40 -c 0 -i 5 -a 0 -x {3.1 1.0 -1 ------- null}
+ -t 0.707790344 -s 0 -d 2 -p tcp -e 40 -c 0 -i 6 -a 0 -x {0.0 3.0 0 ------- null}
- -t 0.707790344 -s 0 -d 2 -p tcp -e 40 -c 0 -i 6 -a 0 -x {0.0 3.0 0 ------- null}
h -t 0.707790344 -s 0 -d 2 -p tcp -e 40 -c 0 -i 6 -a 0 -x {0.0 3.0 -1 ------- null}
r -t 0.70784 -s 2 -d 1 -p ack -e 40 -c 0 -i 4 -a 0 -x {3.1 1.0 1 ------- null}
+ -t 0.70784 -s 1 -d 2 -p tcp -e 1040 -c 0 -i 7 -a 0 -x {1.0 3.1 3 ------- null}
- -t 0.70784 -s 1 -d 2 -p tcp -e 1040 -c 0 -i 7 -a 0 -x {1.0 3.1 3 ------- null}
h -t 0.70784 -s 1 -d 2 -p tcp -e 1040 -c 0 -i 7 -a 0 -x {1.0 3.1 -1 ------- null}
+ -t 0.70784 -s 1 -d 2 -p tcp -e 1040 -c 0 -i 8 -a 0 -x {1.0 3.1 4 ------- null}
- -t 0.712 -s 1 -d 2 -p tcp -e 1040 -c 0 -i 8 -a 0 -x {1.0 3.1 4 ------- null}
h -t 0.712 -s 1 -d 2 -p tcp -e 1040 -c 0 -i 8 -a 0 -x {1.0 3.1 -1 ------- null}
r -t 0.717950344 -s 0 -d 2 -p tcp -e 40 -c 0 -i 6 -a 0 -x {0.0 3.0 0 ------- null}
+ -t 0.717950344 -s 2 -d 3 -p tcp -e 40 -c 0 -i 6 -a 0 -x {0.0 3.0 0 ------- null}
- -t 0.717950344 -s 2 -d 3 -p tcp -e 40 -c 0 -i 6 -a 0 -x {0.0 3.0 0 ------- null}
h -t 0.717950344 -s 2 -d 3 -p tcp -e 40 -c 0 -i 6 -a 0 -x {0.0 3.0 -1 ------- null}
r -t 0.71848 -s 3 -d 2 -p ack -e 40 -c 0 -i 5 -a 0 -x {3.1 1.0 2 ------- null}
+ -t 0.71848 -s 2 -d 1 -p ack -e 40 -c 0 -i 5 -a 0 -x {3.1 1.0 2 ------- null}
- -t 0.71848 -s 2 -d 1 -p ack -e 40 -c 0 -i 5 -a 0 -x {3.1 1.0 2 ------- null}
h -t 0.71848 -s 2 -d 1 -p ack -e 40 -c 0 -i 5 -a 0 -x {3.1 1.0 -1 ------- null}
r -t 0.722 -s 1 -d 2 -p tcp -e 1040 -c 0 -i 7 -a 0 -x {1.0 3.1 3 ------- null}
+ -t 0.722 -s 2 -d 3 -p tcp -e 1040 -c 0 -i 7 -a 0 -x {1.0 3.1 3 ------- null}
- -t 0.722 -s 2 -d 3 -p tcp -e 1040 -c 0 -i 7 -a 0 -x {1.0 3.1 3 ------- null}
h -t 0.722 -s 2 -d 3 -p tcp -e 1040 -c 0 -i 7 -a 0 -x {1.0 3.1 -1 ------- null}
r -t 0.72616 -s 1 -d 2 -p tcp -e 1040 -c 0 -i 8 -a 0 -x {1.0 3.1 4 ------- null}
+ -t 0.72616 -s 2 -d 3 -p tcp -e 1040 -c 0 -i 8 -a 0 -x {1.0 3.1 4 ------- null}
r -t 0.72864 -s 2 -d 1 -p ack -e 40 -c 0 -i 5 -a 0 -x {3.1 1.0 2 ------- null}
+ -t 0.72864 -s 1 -d 2 -p tcp -e 1040 -c 0 -i 9 -a 0 -x {1.0 3.1 5 ------- null}
- -t 0.72864 -s 1 -d 2 -p tcp -e 1040 -c 0 -i 9 -a 0 -x {1.0 3.1 5 ------- null}
h -t 0.72864 -s 1 -d 2 -p tcp -e 1040 -c 0 -i 9 -a 0 -x {1.0 3.1 -1 ------- null}
+ -t 0.72864 -s 1 -d 2 -p tcp -e 1040 -c 0 -i 10 -a 0 -x {1.0 3.1 6 ------- null}
r -t 0.728750344 -s 2 -d 3 -p tcp -e 40 -c 0 -i 6 -a 0 -x {0.0 3.0 0 ------- null}
+ -t 0.728750344 -s 3 -d 2 -p ack -e 40 -c 0 -i 11 -a 0 -x {3.0 0.0 0 ------- null}
- -t 0.728750344 -s 3 -d 2 -p ack -e 40 -c 0 -i 11 -a 0 -x {3.0 0.0 0 ------- null}
h -t 0.728750344 -s 3 -d 2 -p ack -e 40 -c 0 -i 11 -a 0 -x {3.0 0.0 -1 ------- null}
- -t 0.7328 -s 1 -d 2 -p tcp -e 1040 -c 0 -i 10 -a 0 -x {1.0 3.1 6 ------- null}
h -t 0.7328 -s 1 -d 2 -p tcp -e 1040 -c 0 -i 10 -a 0 -x {1.0 3.1 -1 ------- null}
r -t 0.739550344 -s 3 -d 2 -p ack -e 40 -c 0 -i 11 -a 0 -x {3.0 0.0 0 ------- null}
+ -t 0.739550344 -s 2 -d 0 -p ack -e 40 -c 0 -i 11 -a 0 -x {3.0 0.0 0 ------- null}
- -t 0.739550344 -s 2 -d 0 -p ack -e 40 -c 0 -i 11 -a 0 -x {3.0 0.0 0 ------- null}
h -t 0.739550344 -s 2 -d 0 -p ack -e 40 -c 0 -i 11 -a 0 -x {3.0 0.0 -1 ------- null}
- -t 0.7428 -s 2 -d 3 -p tcp -e 1040 -c 0 -i 8 -a 0 -x {1.0 3.1 4 ------- null}
h -t 0.7428 -s 2 -d 3 -p tcp -e 1040 -c 0 -i 8 -a 0 -x {1.0 3.1 -1 ------- null}
r -t 0.7428 -s 1 -d 2 -p tcp -e 1040 -c 0 -i 9 -a 0 -x {1.0 3.1 5 ------- null}
+ -t 0.7428 -s 2 -d 3 -p tcp -e 1040 -c 0 -i 9 -a 0 -x {1.0 3.1 5 ------- null}
r -t 0.74696 -s 1 -d 2 -p tcp -e 1040 -c 0 -i 10 -a 0 -x {1.0 3.1 6 ------- null}
+ -t 0.74696 -s 2 -d 3 -p tcp -e 1040 -c 0 -i 10 -a 0 -x {1.0 3.1 6 ------- null}
r -t 0.749710344 -s 2 -d 0 -p ack -e 40 -c 0 -i 11 -a 0 -x {3.0 0.0 0 ------- null}
+ -t 0.749710344 -s 0 -d 2 -p tcp -e 1040 -c 0 -i 12 -a 0 -x {0.0 3.0 1 ------- null}
- -t 0.749710344 -s 0 -d 2 -p tcp -e 1040 -c 0 -i 12 -a 0 -x {0.0 3.0 1 ------- null}
h -t 0.749710344 -s 0 -d 2 -p tcp -e 1040 -c 0 -i 12 -a 0 -x {0.0 3.0 -1 ------- null}
r -t 0.7528 -s 2 -d 3 -p tcp -e 1040 -c 0 -i 7 -a 0 -x {1.0 3.1 3 ------- null}
+ -t 0.7528 -s 3 -d 2 -p ack -e 40 -c 0 -i 13 -a 0 -x {3.1 1.0 3 ------- null}
- -t 0.7528 -s 3 -d 2 -p ack -e 40 -c 0 -i 13 -a 0 -x {3.1 1.0 3 ------- null}
h -t 0.7528 -s 3 -d 2 -p ack -e 40 -c 0 -i 13 -a 0 -x {3.1 1.0 -1 ------- null}
- -t 0.7636 -s 2 -d 3 -p tcp -e 1040 -c 0 -i 9 -a 0 -x {1.0 3.1 5 ------- null}
h -t 0.7636 -s 2 -d 3 -p tcp -e 1040 -c 0 -i 9 -a 0 -x {1.0 3.1 -1 ------- null}
r -t 0.7636 -s 3 -d 2 -p ack -e 40 -c 0 -i 13 -a 0 -x {3.1 1.0 3 ------- null}
+ -t 0.7636 -s 2 -d 1 -p ack -e 40 -c 0 -i 13 -a 0 -x {3.1 1.0 3 ------- null}
- -t 0.7636 -s 2 -d 1 -p ack -e 40 -c 0 -i 13 -a 0 -x {3.1 1.0 3 ------- null}
h -t 0.7636 -s 2 -d 1 -p ack -e 40 -c 0 -i 13 -a 0 -x {3.1 1.0 -1 ------- null}
r -t 0.763870344 -s 0 -d 2 -p tcp -e 1040 -c 0 -i 12 -a 0 -x {0.0 3.0 1 ------- null}
+ -t 0.763870344 -s 2 -d 3 -p tcp -e 1040 -c 0 -i 12 -a 0 -x {0.0 3.0 1 ------- null}
r -t 0.7736 -s 2 -d 3 -p tcp -e 1040 -c 0 -i 8 -a 0 -x {1.0 3.1 4 ------- null}
+ -t 0.7736 -s 3 -d 2 -p ack -e 40 -c 0 -i 14 -a 0 -x {3.1 1.0 4 ------- null}
- -t 0.7736 -s 3 -d 2 -p ack -e 40 -c 0 -i 14 -a 0 -x {3.1 1.0 4 ------- null}
h -t 0.7736 -s 3 -d 2 -p ack -e 40 -c 0 -i 14 -a 0 -x {3.1 1.0 -1 ------- null}
r -t 0.77376 -s 2 -d 1 -p ack -e 40 -c 0 -i 13 -a 0 -x {3.1 1.0 3 ------- null}
+ -t 0.77376 -s 1 -d 2 -p tcp -e 1040 -c 0 -i 15 -a 0 -x {1.0 3.1 7 ------- null}
- -t 0.77376 -s 1 -d 2 -p tcp -e 1040 -c 0 -i 15 -a 0 -x {1.0 3.1 7 ------- null}
h -t 0.77376 -s 1 -d 2 -p tcp -e 1040 -c 0 -i 15 -a 0 -x {1.0 3.1 -1 ------- null}
+ -t 0.77376 -s 1 -d 2 -p tcp -e 1040 -c 0 -i 16 -a 0 -x {1.0 3.1 8 ------- null}
- -t 0.77792 -s 1 -d 2 -p tcp -e 1040 -c 0 -i 16 -a 0 -x {1.0 3.1 8 ------- null}
h -t 0.77792 -s 1 -d 2 -p tcp -e 1040 -c 0 -i 16 -a 0 -x {1.0 3.1 -1 ------- null}
- -t 0.7844 -s 2 -d 3 -p tcp -e 1040 -c 0 -i 10 -a 0 -x {1.0 3.1 6 ------- null}
h -t 0.7844 -s 2 -d 3 -p tcp -e 1040 -c 0 -i 10 -a 0 -x {1.0 3.1 -1 ------- null}
r -t 0.7844 -s 3 -d 2 -p ack -e 40 -c 0 -i 14 -a 0 -x {3.1 1.0 4 ------- null}
+ -t 0.7844 -s 2 -d 1 -p ack -e 40 -c 0 -i 14 -a 0 -x {3.1 1.0 4 ------- null}
- -t 0.7844 -s 2 -d 1 -p ack -e 40 -c 0 -i 14 -a 0 -x {3.1 1.0 4 ------- null}
h -t 0.7844 -s 2 -d 1 -p ack -e 40 -c 0 -i 14 -a 0 -x {3.1 1.0 -1 ------- null}
r -t 0.78792 -s 1 -d 2 -p tcp -e 1040 -c 0 -i 15 -a 0 -x {1.0 3.1 7 ------- null}
+ -t 0.78792 -s 2 -d 3 -p tcp -e 1040 -c 0 -i 15 -a 0 -x {1.0 3.1 7 ------- null}
r -t 0.79208 -s 1 -d 2 -p tcp -e 1040 -c 0 -i 16 -a 0 -x {1.0 3.1 8 ------- null}
+ -t 0.79208 -s 2 -d 3 -p tcp -e 1040 -c 0 -i 16 -a 0 -x {1.0 3.1 8 ------- null}
r -t 0.7944 -s 2 -d 3 -p tcp -e 1040 -c 0 -i 9 -a 0 -x {1.0 3.1 5 ------- null}
+ -t 0.7944 -s 3 -d 2 -p ack -e 40 -c 0 -i 17 -a 0 -x {3.1 1.0 5 ------- null}
- -t 0.7944 -s 3 -d 2 -p ack -e 40 -c 0 -i 17 -a 0 -x {3.1 1.0 5 ------- null}
h -t 0.7944 -s 3 -d 2 -p ack -e 40 -c 0 -i 17 -a 0 -x {3.1 1.0 -1 ------- null}
r -t 0.79456 -s 2 -d 1 -p ack -e 40 -c 0 -i 14 -a 0 -x {3.1 1.0 4 ------- null}
+ -t 0.79456 -s 1 -d 2 -p tcp -e 1040 -c 0 -i 18 -a 0 -x {1.0 3.1 9 ------- null}
- -t 0.79456 -s 1 -d 2 -p tcp -e 1040 -c 0 -i 18 -a 0 -x {1.0 3.1 9 ------- null}
h -t 0.79456 -s 1 -d 2 -p tcp -e 1040 -c 0 -i 18 -a 0 -x {1.0 3.1 -1 ------- null}
+ -t 0.79456 -s 1 -d 2 -p tcp -e 1040 -c 0 -i 19 -a 0 -x {1.0 3.1 10 ------- null}
- -t 0.79872 -s 1 -d 2 -p tcp -e 1040 -c 0 -i 19 -a 0 -x {1.0 3.1 10 ------- null}
h -t 0.79872 -s 1 -d 2 -p tcp -e 1040 -c 0 -i 19 -a 0 -x {1.0 3.1 -1 ------- null}
- -t 0.8052 -s 2 -d 3 -p tcp -e 1040 -c 0 -i 12 -a 0 -x {0.0 3.0 1 ------- null}
h -t 0.8052 -s 2 -d 3 -p tcp -e 1040 -c 0 -i 12 -a 0 -x {0.0 3.0 -1 ------- null}
r -t 0.8052 -s 3 -d 2 -p ack -e 40 -c 0 -i 17 -a 0 -x {3.1 1.0 5 ------- null}
+ -t 0.8052 -s 2 -d 1 -p ack -e 40 -c 0 -i 17 -a 0 -x {3.1 1.0 5 ------- null}
- -t 0.8052 -s 2 -d 1 -p ack -e 40 -c 0 -i 17 -a 0 -x {3.1 1.0 5 ------- null}
h -t 0.8052 -s 2 -d 1 -p ack -e 40 -c 0 -i 17 -a 0 -x {3.1 1.0 -1 ------- null}
r -t 0.80872 -s 1 -d 2 -p tcp -e 1040 -c 0 -i 18 -a 0 -x {1.0 3.1 9 ------- null}
+ -t 0.80872 -s 2 -d 3 -p tcp -e 1040 -c 0 -i 18 -a 0 -x {1.0 3.1 9 ------- null}
r -t 0.81288 -s 1 -d 2 -p tcp -e 1040 -c 0 -i 19 -a 0 -x {1.0 3.1 10 ------- null}
+ -t 0.81288 -s 2 -d 3 -p tcp -e 1040 -c 0 -i 19 -a 0 -x {1.0 3.1 10 ------- null}
r -t 0.8152 -s 2 -d 3 -p tcp -e 1040 -c 0 -i 10 -a 0 -x {1.0 3.1 6 ------- null}
+ -t 0.8152 -s 3 -d 2 -p ack -e 40 -c 0 -i 20 -a 0 -x {3.1 1.0 6 ------- null}
- -t 0.8152 -s 3 -d 2 -p ack -e 40 -c 0 -i 20 -a 0 -x {3.1 1.0 6 ------- null}
h -t 0.8152 -s 3 -d 2 -p ack -e 40 -c 0 -i 20 -a 0 -x {3.1 1.0 -1 ------- null}
r -t 0.81536 -s 2 -d 1 -p ack -e 40 -c 0 -i 17 -a 0 -x {3.1 1.0 5 ------- null}
+ -t 0.81536 -s 1 -d 2 -p tcp -e 1040 -c 0 -i 21 -a 0 -x {1.0 3.1 11 ------- null}
- -t 0.81536 -s 1 -d 2 -p tcp -e 1040 -c 0 -i 21 -a 0 -x {1.0 3.1 11 ------- null}
h -t 0.81536 -s 1 -d 2 -p tcp -e 1040 -c 0 -i 21 -a 0 -x {1.0 3.1 -1 ------- null}
+ -t 0.81536 -s 1 -d 2 -p tcp -e 1040 -c 0 -i 22 -a 0 -x {1.0 3.1 12 ------- null}
- -t 0.81952 -s 1 -d 2 -p tcp -e 1040 -c 0 -i 22 -a 0 -x {1.0 3.1 12 ------- null}
h -t 0.81952 -s 1 -d 2 -p tcp -e 1040 -c 0 -i 22 -a 0 -x {1.0 3.1 -1 ------- null}
- -t 0.826 -s 2 -d 3 -p tcp -e 1040 -c 0 -i 15 -a 0 -x {1.0 3.1 7 ------- null}
h -t 0.826 -s 2 -d 3 -p tcp -e 1040 -c 0 -i 15 -a 0 -x {1.0 3.1 -1 ------- null}
r -t 0.826 -s 3 -d 2 -p ack -e 40 -c 0 -i 20 -a 0 -x {3.1 1.0 6 ------- null}
+ -t 0.826 -s 2 -d 1 -p ack -e 40 -c 0 -i 20 -a 0 -x {3.1 1.0 6 ------- null}
- -t 0.826 -s 2 -d 1 -p ack -e 40 -c 0 -i 20 -a 0 -x {3.1 1.0 6 ------- null}
h -t 0.826 -s 2 -d 1 -p ack -e 40 -c 0 -i 20 -a 0 -x {3.1 1.0 -1 ------- null}
r -t 0.82952 -s 1 -d 2 -p tcp -e 1040 -c 0 -i 21 -a 0 -x {1.0 3.1 11 ------- null}
+ -t 0.82952 -s 2 -d 3 -p tcp -e 1040 -c 0 -i 21 -a 0 -x {1.0 3.1 11 ------- null}
r -t 0.83368 -s 1 -d 2 -p tcp -e 1040 -c 0 -i 22 -a 0 -x {1.0 3.1 12 ------- null}
+ -t 0.83368 -s 2 -d 3 -p tcp -e 1040 -c 0 -i 22 -a 0 -x {1.0 3.1 12 ------- null}
r -t 0.836 -s 2 -d 3 -p tcp -e 1040 -c 0 -i 12 -a 0 -x {0.0 3.0 1 ------- null}
+ -t 0.836 -s 3 -d 2 -p ack -e 40 -c 0 -i 23 -a 0 -x {3.0 0.0 1 ------- null}
- -t 0.836 -s 3 -d 2 -p ack -e 40 -c 0 -i 23 -a 0 -x {3.0 0.0 1 ------- null}
h -t 0.836 -s 3 -d 2 -p ack -e 40 -c 0 -i 23 -a 0 -x {3.0 0.0 -1 ------- null}
r -t 0.83616 -s 2 -d 1 -p ack -e 40 -c 0 -i 20 -a 0 -x {3.1 1.0 6 ------- null}
+ -t 0.83616 -s 1 -d 2 -p tcp -e 1040 -c 0 -i 24 -a 0 -x {1.0 3.1 13 ------- null}
- -t 0.83616 -s 1 -d 2 -p tcp -e 1040 -c 0 -i 24 -a 0 -x {1.0 3.1 13 ------- null}
h -t 0.83616 -s 1 -d 2 -p tcp -e 1040 -c 0 -i 24 -a 0 -x {1.0 3.1 -1 ------- null}
+ -t 0.83616 -s 1 -d 2 -p tcp -e 1040 -c 0 -i 25 -a 0 -x {1.0 3.1 14 ------- null}
- -t 0.84032 -s 1 -d 2 -p tcp -e 1040 -c 0 -i 25 -a 0 -x {1.0 3.1 14 ------- null}
h -t 0.84032 -s 1 -d 2 -p tcp -e 1040 -c 0 -i 25 -a 0 -x {1.0 3.1 -1 ------- null}
- -t 0.8468 -s 2 -d 3 -p tcp -e 1040 -c 0 -i 16 -a 0 -x {1.0 3.1 8 ------- null}
h -t 0.8468 -s 2 -d 3 -p tcp -e 1040 -c 0 -i 16 -a 0 -x {1.0 3.1 -1 ------- null}
r -t 0.8468 -s 3 -d 2 -p ack -e 40 -c 0 -i 23 -a 0 -x {3.0 0.0 1 ------- null}
+ -t 0.8468 -s 2 -d 0 -p ack -e 40 -c 0 -i 23 -a 0 -x {3.0 0.0 1 ------- null}
- -t 0.8468 -s 2 -d 0 -p ack -e 40 -c 0 -i 23 -a 0 -x {3.0 0.0 1 ------- null}
h -t 0.8468 -s 2 -d 0 -p ack -e 40 -c 0 -i 23 -a 0 -x {3.0 0.0 -1 ------- null}
r -t 0.85032 -s 1 -d 2 -p tcp -e 1040 -c 0 -i 24 -a 0 -x {1.0 3.1 13 ------- null}
+ -t 0.85032 -s 2 -d 3 -p tcp -e 1040 -c 0 -i 24 -a 0 -x {1.0 3.1 13 ------- null}
r -t 0.85448 -s 1 -d 2 -p tcp -e 1040 -c 0 -i 25 -a 0 -x {1.0 3.1 14 ------- null}
+ -t 0.85448 -s 2 -d 3 -p tcp -e 1040 -c 0 -i 25 -a 0 -x {1.0 3.1 14 ------- null}
r -t 0.8568 -s 2 -d 3 -p tcp -e 1040 -c 0 -i 15 -a 0 -x {1.0 3.1 7 ------- null}
+ -t 0.8568 -s 3 -d 2 -p ack -e 40 -c 0 -i 26 -a 0 -x {3.1 1.0 7 ------- null}
- -t 0.8568 -s 3 -d 2 -p ack -e 40 -c 0 -i 26 -a 0 -x {3.1 1.0 7 ------- null}
h -t 0.8568 -s 3 -d 2 -p ack -e 40 -c 0 -i 26 -a 0 -x {3.1 1.0 -1 ------- null}
r -t 0.85696 -s 2 -d 0 -p ack -e 40 -c 0 -i 23 -a 0 -x {3.0 0.0 1 ------- null}
- -t 0.8676 -s 2 -d 3 -p tcp -e 1040 -c 0 -i 18 -a 0 -x {1.0 3.1 9 ------- null}
h -t 0.8676 -s 2 -d 3 -p tcp -e 1040 -c 0 -i 18 -a 0 -x {1.0 3.1 -1 ------- null}
r -t 0.8676 -s 3 -d 2 -p ack -e 40 -c 0 -i 26 -a 0 -x {3.1 1.0 7 ------- null}
+ -t 0.8676 -s 2 -d 1 -p ack -e 40 -c 0 -i 26 -a 0 -x {3.1 1.0 7 ------- null}
- -t 0.8676 -s 2 -d 1 -p ack -e 40 -c 0 -i 26 -a 0 -x {3.1 1.0 7 ------- null}
h -t 0.8676 -s 2 -d 1 -p ack -e 40 -c 0 -i 26 -a 0 -x {3.1 1.0 -1 ------- null}
r -t 0.8776 -s 2 -d 3 -p tcp -e 1040 -c 0 -i 16 -a 0 -x {1.0 3.1 8 ------- null}
+ -t 0.8776 -s 3 -d 2 -p ack -e 40 -c 0 -i 27 -a 0 -x {3.1 1.0 8 ------- null}
- -t 0.8776 -s 3 -d 2 -p ack -e 40 -c 0 -i 27 -a 0 -x {3.1 1.0 8 ------- null}
h -t 0.8776 -s 3 -d 2 -p ack -e 40 -c 0 -i 27 -a 0 -x {3.1 1.0 -1 ------- null}
r -t 0.87776 -s 2 -d 1 -p ack -e 40 -c 0 -i 26 -a 0 -x {3.1 1.0 7 ------- null}
+ -t 0.87776 -s 1 -d 2 -p tcp -e 1040 -c 0 -i 28 -a 0 -x {1.0 3.1 15 ------- null}
- -t 0.87776 -s 1 -d 2 -p tcp -e 1040 -c 0 -i 28 -a 0 -x {1.0 3.1 15 ------- null}
h -t 0.87776 -s 1 -d 2 -p tcp -e 1040 -c 0 -i 28 -a 0 -x {1.0 3.1 -1 ------- null}
+ -t 0.87776 -s 1 -d 2 -p tcp -e 1040 -c 0 -i 29 -a 0 -x {1.0 3.1 16 ------- null}
- -t 0.88192 -s 1 -d 2 -p tcp -e 1040 -c 0 -i 29 -a 0 -x {1.0 3.1 16 ------- null}
h -t 0.88192 -s 1 -d 2 -p tcp -e 1040 -c 0 -i 29 -a 0 -x {1.0 3.1 -1 ------- null}
- -t 0.8884 -s 2 -d 3 -p tcp -e 1040 -c 0 -i 19 -a 0 -x {1.0 3.1 10 ------- null}
h -t 0.8884 -s 2 -d 3 -p tcp -e 1040 -c 0 -i 19 -a 0 -x {1.0 3.1 -1 ------- null}
r -t 0.8884 -s 3 -d 2 -p ack -e 40 -c 0 -i 27 -a 0 -x {3.1 1.0 8 ------- null}
+ -t 0.8884 -s 2 -d 1 -p ack -e 40 -c 0 -i 27 -a 0 -x {3.1 1.0 8 ------- null}
- -t 0.8884 -s 2 -d 1 -p ack -e 40 -c 0 -i 27 -a 0 -x {3.1 1.0 8 ------- null}
h -t 0.8884 -s 2 -d 1 -p ack -e 40 -c 0 -i 27 -a 0 -x {3.1 1.0 -1 ------- null}
r -t 0.89192 -s 1 -d 2 -p tcp -e 1040 -c 0 -i 28 -a 0 -x {1.0 3.1 15 ------- null}
+ -t 0.89192 -s 2 -d 3 -p tcp -e 1040 -c 0 -i 28 -a 0 -x {1.0 3.1 15 ------- null}
r -t 0.89608 -s 1 -d 2 -p tcp -e 1040 -c 0 -i 29 -a 0 -x {1.0 3.1 16 ------- null}
+ -t 0.89608 -s 2 -d 3 -p tcp -e 1040 -c 0 -i 29 -a 0 -x {1.0 3.1 16 ------- null}
r -t 0.8984 -s 2 -d 3 -p tcp -e 1040 -c 0 -i 18 -a 0 -x {1.0 3.1 9 ------- null}
+ -t 0.8984 -s 3 -d 2 -p ack -e 40 -c 0 -i 30 -a 0 -x {3.1 1.0 9 ------- null}
- -t 0.8984 -s 3 -d 2 -p ack -e 40 -c 0 -i 30 -a 0 -x {3.1 1.0 9 ------- null}
h -t 0.8984 -s 3 -d 2 -p ack -e 40 -c 0 -i 30 -a 0 -x {3.1 1.0 -1 ------- null}
r -t 0.89856 -s 2 -d 1 -p ack -e 40 -c 0 -i 27 -a 0 -x {3.1 1.0 8 ------- null}
+ -t 0.89856 -s 1 -d 2 -p tcp -e 1040 -c 0 -i 31 -a 0 -x {1.0 3.1 17 ------- null}
- -t 0.89856 -s 1 -d 2 -p tcp -e 1040 -c 0 -i 31 -a 0 -x {1.0 3.1 17 ------- null}
h -t 0.89856 -s 1 -d 2 -p tcp -e 1040 -c 0 -i 31 -a 0 -x {1.0 3.1 -1 ------- null}
+ -t 0.89856 -s 1 -d 2 -p tcp -e 1040 -c 0 -i 32 -a 0 -x {1.0 3.1 18 ------- null}
- -t 0.90272 -s 1 -d 2 -p tcp -e 1040 -c 0 -i 32 -a 0 -x {1.0 3.1 18 ------- null}
h -t 0.90272 -s 1 -d 2 -p tcp -e 1040 -c 0 -i 32 -a 0 -x {1.0 3.1 -1 ------- null}
- -t 0.9092 -s 2 -d 3 -p tcp -e 1040 -c 0 -i 21 -a 0 -x {1.0 3.1 11 ------- null}
h -t 0.9092 -s 2 -d 3 -p tcp -e 1040 -c 0 -i 21 -a 0 -x {1.0 3.1 -1 ------- null}
r -t 0.9092 -s 3 -d 2 -p ack -e 40 -c 0 -i 30 -a 0 -x {3.1 1.0 9 ------- null}
+ -t 0.9092 -s 2 -d 1 -p ack -e 40 -c 0 -i 30 -a 0 -x {3.1 1.0 9 ------- null}
- -t 0.9092 -s 2 -d 1 -p ack -e 40 -c 0 -i 30 -a 0 -x {3.1 1.0 9 ------- null}
h -t 0.9092 -s 2 -d 1 -p ack -e 40 -c 0 -i 30 -a 0 -x {3.1 1.0 -1 ------- null}
r -t 0.91272 -s 1 -d 2 -p tcp -e 1040 -c 0 -i 31 -a 0 -x {1.0 3.1 17 ------- null}
+ -t 0.91272 -s 2 -d 3 -p tcp -e 1040 -c 0 -i 31 -a 0 -x {1.0 3.1 17 ------- null}
r -t 0.91688 -s 1 -d 2 -p tcp -e 1040 -c 0 -i 32 -a 0 -x {1.0 3.1 18 ------- null}
+ -t 0.91688 -s 2 -d 3 -p tcp -e 1040 -c 0 -i 32 -a 0 -x {1.0 3.1 18 ------- null}
r -t 0.9192 -s 2 -d 3 -p tcp -e 1040 -c 0 -i 19 -a 0 -x {1.0 3.1 10 ------- null}
+ -t 0.9192 -s 3 -d 2 -p ack -e 40 -c 0 -i 33 -a 0 -x {3.1 1.0 10 ------- null}
- -t 0.9192 -s 3 -d 2 -p ack -e 40 -c 0 -i 33 -a 0 -x {3.1 1.0 10 ------- null}
h -t 0.9192 -s 3 -d 2 -p ack -e 40 -c 0 -i 33 -a 0 -x {3.1 1.0 -1 ------- null}
r -t 0.91936 -s 2 -d 1 -p ack -e 40 -c 0 -i 30 -a 0 -x {3.1 1.0 9 ------- null}
+ -t 0.91936 -s 1 -d 2 -p tcp -e 1040 -c 0 -i 34 -a 0 -x {1.0 3.1 19 ------- null}
- -t 0.91936 -s 1 -d 2 -p tcp -e 1040 -c 0 -i 34 -a 0 -x {1.0 3.1 19 ------- null}
h -t 0.91936 -s 1 -d 2 -p tcp -e 1040 -c 0 -i 34 -a 0 -x {1.0 3.1 -1 ------- null}
+ -t 0.91936 -s 1 -d 2 -p tcp -e 1040 -c 0 -i 35 -a 0 -x {1.0 3.1 20 ------- null}
- -t 0.92352 -s 1 -d 2 -p tcp -e 1040 -c 0 -i 35 -a 0 -x {1.0 3.1 20 ------- null}
h -t 0.92352 -s 1 -d 2 -p tcp -e 1040 -c 0 -i 35 -a 0 -x {1.0 3.1 -1 ------- null}
- -t 0.93 -s 2 -d 3 -p tcp -e 1040 -c 0 -i 22 -a 0 -x {1.0 3.1 12 ------- null}
h -t 0.93 -s 2 -d 3 -p tcp -e 1040 -c 0 -i 22 -a 0 -x {1.0 3.1 -1 ------- null}
r -t 0.93 -s 3 -d 2 -p ack -e 40 -c 0 -i 33 -a 0 -x {3.1 1.0 10 ------- null}
+ -t 0.93 -s 2 -d 1 -p ack -e 40 -c 0 -i 33 -a 0 -x {3.1 1.0 10 ------- null}
- -t 0.93 -s 2 -d 1 -p ack -e 40 -c 0 -i 33 -a 0 -x {3.1 1.0 10 ------- null}
h -t 0.93 -s 2 -d 1 -p ack -e 40 -c 0 -i 33 -a 0 -x {3.1 1.0 -1 ------- null}
r -t 0.93352 -s 1 -d 2 -p tcp -e 1040 -c 0 -i 34 -a 0 -x {1.0 3.1 19 ------- null}
+ -t 0.93352 -s 2 -d 3 -p tcp -e 1040 -c 0 -i 34 -a 0 -x {1.0 3.1 19 ------- null}
r -t 0.93768 -s 1 -d 2 -p tcp -e 1040 -c 0 -i 35 -a 0 -x {1.0 3.1 20 ------- null}
+ -t 0.93768 -s 2 -d 3 -p tcp -e 1040 -c 0 -i 35 -a 0 -x {1.0 3.1 20 ------- null}
r -t 0.94 -s 2 -d 3 -p tcp -e 1040 -c 0 -i 21 -a 0 -x {1.0 3.1 11 ------- null}
+ -t 0.94 -s 3 -d 2 -p ack -e 40 -c 0 -i 36 -a 0 -x {3.1 1.0 11 ------- null}
- -t 0.94 -s 3 -d 2 -p ack -e 40 -c 0 -i 36 -a 0 -x {3.1 1.0 11 ------- null}
h -t 0.94 -s 3 -d 2 -p ack -e 40 -c 0 -i 36 -a 0 -x {3.1 1.0 -1 ------- null}
r -t 0.94016 -s 2 -d 1 -p ack -e 40 -c 0 -i 33 -a 0 -x {3.1 1.0 10 ------- null}
+ -t 0.94016 -s 1 -d 2 -p tcp -e 1040 -c 0 -i 37 -a 0 -x {1.0 3.1 21 ------- null}
- -t 0.94016 -s 1 -d 2 -p tcp -e 1040 -c 0 -i 37 -a 0 -x {1.0 3.1 21 ------- null}
h -t 0.94016 -s 1 -d 2 -p tcp -e 1040 -c 0 -i 37 -a 0 -x {1.0 3.1 -1 ------- null}
+ -t 0.94016 -s 1 -d 2 -p tcp -e 1040 -c 0 -i 38 -a 0 -x {1.0 3.1 22 ------- null}
- -t 0.94432 -s 1 -d 2 -p tcp -e 1040 -c 0 -i 38 -a 0 -x {1.0 3.1 22 ------- null}
h -t 0.94432 -s 1 -d 2 -p tcp -e 1040 -c 0 -i 38 -a 0 -x {1.0 3.1 -1 ------- null}
- -t 0.9508 -s 2 -d 3 -p tcp -e 1040 -c 0 -i 24 -a 0 -x {1.0 3.1 13 ------- null}
h -t 0.9508 -s 2 -d 3 -p tcp -e 1040 -c 0 -i 24 -a 0 -x {1.0 3.1 -1 ------- null}
r -t 0.9508 -s 3 -d 2 -p ack -e 40 -c 0 -i 36 -a 0 -x {3.1 1.0 11 ------- null}
+ -t 0.9508 -s 2 -d 1 -p ack -e 40 -c 0 -i 36 -a 0 -x {3.1 1.0 11 ------- null}
- -t 0.9508 -s 2 -d 1 -p ack -e 40 -c 0 -i 36 -a 0 -x {3.1 1.0 11 ------- null}
h -t 0.9508 -s 2 -d 1 -p ack -e 40 -c 0 -i 36 -a 0 -x {3.1 1.0 -1 ------- null}
r -t 0.95432 -s 1 -d 2 -p tcp -e 1040 -c 0 -i 37 -a 0 -x {1.0 3.1 21 ------- null}
+ -t 0.95432 -s 2 -d 3 -p tcp -e 1040 -c 0 -i 37 -a 0 -x {1.0 3.1 21 ------- null}
r -t 0.95848 -s 1 -d 2 -p tcp -e 1040 -c 0 -i 38 -a 0 -x {1.0 3.1 22 ------- null}
+ -t 0.95848 -s 2 -d 3 -p tcp -e 1040 -c 0 -i 38 -a 0 -x {1.0 3.1 22 ------- null}
r -t 0.9608 -s 2 -d 3 -p tcp -e 1040 -c 0 -i 22 -a 0 -x {1.0 3.1 12 ------- null}
+ -t 0.9608 -s 3 -d 2 -p ack -e 40 -c 0 -i 39 -a 0 -x {3.1 1.0 12 ------- null}
- -t 0.9608 -s 3 -d 2 -p ack -e 40 -c 0 -i 39 -a 0 -x {3.1 1.0 12 ------- null}
h -t 0.9608 -s 3 -d 2 -p ack -e 40 -c 0 -i 39 -a 0 -x {3.1 1.0 -1 ------- null}
r -t 0.96096 -s 2 -d 1 -p ack -e 40 -c 0 -i 36 -a 0 -x {3.1 1.0 11 ------- null}
+ -t 0.96096 -s 1 -d 2 -p tcp -e 1040 -c 0 -i 40 -a 0 -x {1.0 3.1 23 ------- null}
- -t 0.96096 -s 1 -d 2 -p tcp -e 1040 -c 0 -i 40 -a 0 -x {1.0 3.1 23 ------- null}
h -t 0.96096 -s 1 -d 2 -p tcp -e 1040 -c 0 -i 40 -a 0 -x {1.0 3.1 -1 ------- null}
+ -t 0.96096 -s 1 -d 2 -p tcp -e 1040 -c 0 -i 41 -a 0 -x {1.0 3.1 24 ------- null}
- -t 0.96512 -s 1 -d 2 -p tcp -e 1040 -c 0 -i 41 -a 0 -x {1.0 3.1 24 ------- null}
h -t 0.96512 -s 1 -d 2 -p tcp -e 1040 -c 0 -i 41 -a 0 -x {1.0 3.1 -1 ------- null}
- -t 0.9716 -s 2 -d 3 -p tcp -e 1040 -c 0 -i 25 -a 0 -x {1.0 3.1 14 ------- null}
h -t 0.9716 -s 2 -d 3 -p tcp -e 1040 -c 0 -i 25 -a 0 -x {1.0 3.1 -1 ------- null}
r -t 0.9716 -s 3 -d 2 -p ack -e 40 -c 0 -i 39 -a 0 -x {3.1 1.0 12 ------- null}
+ -t 0.9716 -s 2 -d 1 -p ack -e 40 -c 0 -i 39 -a 0 -x {3.1 1.0 12 ------- null}
- -t 0.9716 -s 2 -d 1 -p ack -e 40 -c 0 -i 39 -a 0 -x {3.1 1.0 12 ------- null}
h -t 0.9716 -s 2 -d 1 -p ack -e 40 -c 0 -i 39 -a 0 -x {3.1 1.0 -1 ------- null}
r -t 0.97512 -s 1 -d 2 -p tcp -e 1040 -c 0 -i 40 -a 0 -x {1.0 3.1 23 ------- null}
+ -t 0.97512 -s 2 -d 3 -p tcp -e 1040 -c 0 -i 40 -a 0 -x {1.0 3.1 23 ------- null}
r -t 0.97928 -s 1 -d 2 -p tcp -e 1040 -c 0 -i 41 -a 0 -x {1.0 3.1 24 ------- null}
+ -t 0.97928 -s 2 -d 3 -p tcp -e 1040 -c 0 -i 41 -a 0 -x {1.0 3.1 24 ------- null}
r -t 0.9816 -s 2 -d 3 -p tcp -e 1040 -c 0 -i 24 -a 0 -x {1.0 3.1 13 ------- null}
+ -t 0.9816 -s 3 -d 2 -p ack -e 40 -c 0 -i 42 -a 0 -x {3.1 1.0 13 ------- null}
- -t 0.9816 -s 3 -d 2 -p ack -e 40 -c 0 -i 42 -a 0 -x {3.1 1.0 13 ------- null}
h -t 0.9816 -s 3 -d 2 -p ack -e 40 -c 0 -i 42 -a 0 -x {3.1 1.0 -1 ------- null}
r -t 0.98176 -s 2 -d 1 -p ack -e 40 -c 0 -i 39 -a 0 -x {3.1 1.0 12 ------- null}
+ -t 0.98176 -s 1 -d 2 -p tcp -e 1040 -c 0 -i 43 -a 0 -x {1.0 3.1 25 ------- null}
- -t 0.98176 -s 1 -d 2 -p tcp -e 1040 -c 0 -i 43 -a 0 -x {1.0 3.1 25 ------- null}
h -t 0.98176 -s 1 -d 2 -p tcp -e 1040 -c 0 -i 43 -a 0 -x {1.0 3.1 -1 ------- null}
+ -t 0.98176 -s 1 -d 2 -p tcp -e 1040 -c 0 -i 44 -a 0 -x {1.0 3.1 26 ------- null}
- -t 0.98592 -s 1 -d 2 -p tcp -e 1040 -c 0 -i 44 -a 0 -x {1.0 3.1 26 ------- null}
h -t 0.98592 -s 1 -d 2 -p tcp -e 1040 -c 0 -i 44 -a 0 -x {1.0 3.1 -1 ------- null}
- -t 0.9924 -s 2 -d 3 -p tcp -e 1040 -c 0 -i 28 -a 0 -x {1.0 3.1 15 ------- null}
h -t 0.9924 -s 2 -d 3 -p tcp -e 1040 -c 0 -i 28 -a 0 -x {1.0 3.1 -1 ------- null}
r -t 0.9924 -s 3 -d 2 -p ack -e 40 -c 0 -i 42 -a 0 -x {3.1 1.0 13 ------- null}
+ -t 0.9924 -s 2 -d 1 -p ack -e 40 -c 0 -i 42 -a 0 -x {3.1 1.0 13 ------- null}
- -t 0.9924 -s 2 -d 1 -p ack -e 40 -c 0 -i 42 -a 0 -x {3.1 1.0 13 ------- null}
h -t 0.9924 -s 2 -d 1 -p ack -e 40 -c 0 -i 42 -a 0 -x {3.1 1.0 -1 ------- null}
r -t 0.99592 -s 1 -d 2 -p tcp -e 1040 -c 0 -i 43 -a 0 -x {1.0 3.1 25 ------- null}
+ -t 0.99592 -s 2 -d 3 -p tcp -e 1040 -c 0 -i 43 -a 0 -x {1.0 3.1 25 ------- null}
r -t 1.00008 -s 1 -d 2 -p tcp -e 1040 -c 0 -i 44 -a 0 -x {1.0 3.1 26 ------- null}
+ -t 1.00008 -s 2 -d 3 -p tcp -e 1040 -c 0 -i 44 -a 0 -x {1.0 3.1 26 ------- null}
r -t 1.0024 -s 2 -d 3 -p tcp -e 1040 -c 0 -i 25 -a 0 -x {1.0 3.1 14 ------- null}
+ -t 1.0024 -s 3 -d 2 -p ack -e 40 -c 0 -i 45 -a 0 -x {3.1 1.0 14 ------- null}
- -t 1.0024 -s 3 -d 2 -p ack -e 40 -c 0 -i 45 -a 0 -x {3.1 1.0 14 ------- null}
h -t 1.0024 -s 3 -d 2 -p ack -e 40 -c 0 -i 45 -a 0 -x {3.1 1.0 -1 ------- null}
r -t 1.00256 -s 2 -d 1 -p ack -e 40 -c 0 -i 42 -a 0 -x {3.1 1.0 13 ------- null}
+ -t 1.00256 -s 1 -d 2 -p tcp -e 1040 -c 0 -i 46 -a 0 -x {1.0 3.1 27 ------- null}
- -t 1.00256 -s 1 -d 2 -p tcp -e 1040 -c 0 -i 46 -a 0 -x {1.0 3.1 27 ------- null}
h -t 1.00256 -s 1 -d 2 -p tcp -e 1040 -c 0 -i 46 -a 0 -x {1.0 3.1 -1 ------- null}
+ -t 1.00256 -s 1 -d 2 -p tcp -e 1040 -c 0 -i 47 -a 0 -x {1.0 3.1 28 ------- null}
- -t 1.00672 -s 1 -d 2 -p tcp -e 1040 -c 0 -i 47 -a 0 -x {1.0 3.1 28 ------- null}
h -t 1.00672 -s 1 -d 2 -p tcp -e 1040 -c 0 -i 47 -a 0 -x {1.0 3.1 -1 ------- null}
- -t 1.0132 -s 2 -d 3 -p tcp -e 1040 -c 0 -i 29 -a 0 -x {1.0 3.1 16 ------- null}
h -t 1.0132 -s 2 -d 3 -p tcp -e 1040 -c 0 -i 29 -a 0 -x {1.0 3.1 -1 ------- null}
r -t 1.0132 -s 3 -d 2 -p ack -e 40 -c 0 -i 45 -a 0 -x {3.1 1.0 14 ------- null}
+ -t 1.0132 -s 2 -d 1 -p ack -e 40 -c 0 -i 45 -a 0 -x {3.1 1.0 14 ------- null}
- -t 1.0132 -s 2 -d 1 -p ack -e 40 -c 0 -i 45 -a 0 -x {3.1 1.0 14 ------- null}
h -t 1.0132 -s 2 -d 1 -p ack -e 40 -c 0 -i 45 -a 0 -x {3.1 1.0 -1 ------- null}
r -t 1.01672 -s 1 -d 2 -p tcp -e 1040 -c 0 -i 46 -a 0 -x {1.0 3.1 27 ------- null}
+ -t 1.01672 -s 2 -d 3 -p tcp -e 1040 -c 0 -i 46 -a 0 -x {1.0 3.1 27 ------- null}
r -t 1.02088 -s 1 -d 2 -p tcp -e 1040 -c 0 -i 47 -a 0 -x {1.0 3.1 28 ------- null}
+ -t 1.02088 -s 2 -d 3 -p tcp -e 1040 -c 0 -i 47 -a 0 -x {1.0 3.1 28 ------- null}
r -t 1.0232 -s 2 -d 3 -p tcp -e 1040 -c 0 -i 28 -a 0 -x {1.0 3.1 15 ------- null}
+ -t 1.0232 -s 3 -d 2 -p ack -e 40 -c 0 -i 48 -a 0 -x {3.1 1.0 15 ------- null}
- -t 1.0232 -s 3 -d 2 -p ack -e 40 -c 0 -i 48 -a 0 -x {3.1 1.0 15 ------- null}
h -t 1.0232 -s 3 -d 2 -p ack -e 40 -c 0 -i 48 -a 0 -x {3.1 1.0 -1 ------- null}
r -t 1.02336 -s 2 -d 1 -p ack -e 40 -c 0 -i 45 -a 0 -x {3.1 1.0 14 ------- null}
+ -t 1.02336 -s 1 -d 2 -p tcp -e 1040 -c 0 -i 49 -a 0 -x {1.0 3.1 29 ------- null}
- -t 1.02336 -s 1 -d 2 -p tcp -e 1040 -c 0 -i 49 -a 0 -x {1.0 3.1 29 ------- null}
h -t 1.02336 -s 1 -d 2 -p tcp -e 1040 -c 0 -i 49 -a 0 -x {1.0 3.1 -1 ------- null}
+ -t 1.02336 -s 1 -d 2 -p tcp -e 1040 -c 0 -i 50 -a 0 -x {1.0 3.1 30 ------- null}
- -t 1.02752 -s 1 -d 2 -p tcp -e 1040 -c 0 -i 50 -a 0 -x {1.0 3.1 30 ------- null}
h -t 1.02752 -s 1 -d 2 -p tcp -e 1040 -c 0 -i 50 -a 0 -x {1.0 3.1 -1 ------- null}
- -t 1.034 -s 2 -d 3 -p tcp -e 1040 -c 0 -i 31 -a 0 -x {1.0 3.1 17 ------- null}
h -t 1.034 -s 2 -d 3 -p tcp -e 1040 -c 0 -i 31 -a 0 -x {1.0 3.1 -1 ------- null}
r -t 1.034 -s 3 -d 2 -p ack -e 40 -c 0 -i 48 -a 0 -x {3.1 1.0 15 ------- null}
+ -t 1.034 -s 2 -d 1 -p ack -e 40 -c 0 -i 48 -a 0 -x {3.1 1.0 15 ------- null}
- -t 1.034 -s 2 -d 1 -p ack -e 40 -c 0 -i 48 -a 0 -x {3.1 1.0 15 ------- null}
h -t 1.034 -s 2 -d 1 -p ack -e 40 -c 0 -i 48 -a 0 -x {3.1 1.0 -1 ------- null}
r -t 1.03752 -s 1 -d 2 -p tcp -e 1040 -c 0 -i 49 -a 0 -x {1.0 3.1 29 ------- null}
+ -t 1.03752 -s 2 -d 3 -p tcp -e 1040 -c 0 -i 49 -a 0 -x {1.0 3.1 29 ------- null}