+ 0.6 1 2 tcp 40 ------- 0 1.0 3.1 0 0
- 0.6 1 2 tcp 40 ------- 0 1.0 3.1 0 0
r 0.61016 1 2 tcp 40 ------- 0 1.0 3.1 0 0
+ 0.61016 2 3 tcp 40 ------- 0 1.0 3.1 0 0
- 0.61016 2 3 tcp 40 ------- 0 1.0 3.1 0 0
r 0.62096 2 3 tcp 40 ------- 0 1.0 3.1 0 0
+ 0.62096 3 2 ack 40 ------- 0 3.1 1.0 0 1
- 0.62096 3 2 ack 40 ------- 0 3.1 1.0 0 1
r 0.63176 3 2 ack 40 ------- 0 3.1 1.0 0 1
+ 0.63176 2 1 ack 40 ------- 0 3.1 1.0 0 1
- 0.63176 2 1 ack 40 ------- 0 3.1 1.0 0 1
r 0.64192 2 1 ack 40 ------- 0 3.1 1.0 0 1
+ 0.64192 1 2 tcp 1040 ------- 0 1.0 3.1 1 2
- 0.64192 1 2 tcp 1040 ------- 0 1.0 3.1 1 2
+ 0.64192 1 2 tcp 1040 ------- 0 1.0 3.1 2 3
- 0.64608 1 2 tcp 1040 ------- 0 1.0 3.1 2 3
r 0.65608 1 2 tcp 1040 ------- 0 1.0 3.1 1 2
+ 0.65608 2 3 tcp 1040 ------- 0 1.0 3.1 1 2
- 0.65608 2 3 tcp 1040 ------- 0 1.0 3.1 1 2
r 0.66024 1 2 tcp 1040 ------- 0 1.0 3.1 2 3
+ 0.66024 2 3 tcp 1040 ------- 0 1.0 3.1 2 3
- 0.67688 2 3 tcp 1040 ------- 0 1.0 3.1 2 3
r 0.68688 2 3 tcp 1040 ------- 0 1.0 3.1 1 2
+ 0.68688 3 2 ack 40 ------- 0 3.1 1.0 1 4
- 0.68688 3 2 ack 40 ------- 0 3.1 1.0 1 4
r 0.69768 3 2 ack 40 ------- 0 3.1 1.0 1 4
+ 0.69768 2 1 ack 40 ------- 0 3.1 1.0 1 4
- 0.69768 2 1 ack 40 ------- 0 3.1 1.0 1 4
r 0.70768 2 3 tcp 1040 ------- 0 1.0 3.1 2 3
+ 0.70768 3 2 ack 40 ------- 0 3.1 1.0 2 5
- 0.70768 3 2 ack 40 ------- 0 3.1 1.0 2 5
+ 0.70779 0 2 tcp 40 ------- 0 0.0 3.0 0 6
- 0.70779 0 2 tcp 40 ------- 0 0.0 3.0 0 6
r 0.70784 2 1 ack 40 ------- 0 3.1 1.0 1 4
+ 0.70784 1 2 tcp 1040 ------- 0 1.0 3.1 3 7
- 0.70784 1 2 tcp 1040 ------- 0 1.0 3.1 3 7
+ 0.70784 1 2 tcp 1040 ------- 0 1.0 3.1 4 8
- 0.712 1 2 tcp 1040 ------- 0 1.0 3.1 4 8
r 0.71795 0 2 tcp 40 ------- 0 0.0 3.0 0 6
+ 0.71795 2 3 tcp 40 ------- 0 0.0 3.0 0 6
- 0.71795 2 3 tcp 40 ------- 0 0.0 3.0 0 6
r 0.71848 3 2 ack 40 ------- 0 3.1 1.0 2 5
+ 0.71848 2 1 ack 40 ------- 0 3.1 1.0 2 5
- 0.71848 2 1 ack 40 ------- 0 3.1 1.0 2 5
r 0.722 1 2 tcp 1040 ------- 0 1.0 3.1 3 7
+ 0.722 2 3 tcp 1040 ------- 0 1.0 3.1 3 7
- 0.722 2 3 tcp 1040 ------- 0 1.0 3.1 3 7
r 0.72616 1 2 tcp 1040 ------- 0 1.0 3.1 4 8
+ 0.72616 2 3 tcp 1040 ------- 0 1.0 3.1 4 8
r 0.72864 2 1 ack 40 ------- 0 3.1 1.0 2 5
+ 0.72864 1 2 tcp 1040 ------- 0 1.0 3.1 5 9
- 0.72864 1 2 tcp 1040 ------- 0 1.0 3.1 5 9
+ 0.72864 1 2 tcp 1040 ------- 0 1.0 3.1 6 10
r 0.72875 2 3 tcp 40 ------- 0 0.0 3.0 0 6
+ 0.72875 3 2 ack 40 ------- 0 3.0 0.0 0 11
- 0.72875 3 2 ack 40 ------- 0 3.0 0.0 0 11
- 0.7328 1 2 tcp 1040 ------- 0 1.0 3.1 6 10
r 0.73955 3 2 ack 40 ------- 0 3.0 0.0 0 11
+ 0.73955 2 0 ack 40 ------- 0 3.0 0.0 0 11
- 0.73955 2 0 ack 40 ------- 0 3.0 0.0 0 11
- 0.7428 2 3 tcp 1040 ------- 0 1.0 3.1 4 8
r 0.7428 1 2 tcp 1040 ------- 0 1.0 3.1 5 9
+ 0.7428 2 3 tcp 1040 ------- 0 1.0 3.1 5 9
r 0.74696 1 2 tcp 1040 ------- 0 1.0 3.1 6 10
+ 0.74696 2 3 tcp 1040 ------- 0 1.0 3.1 6 10
r 0.74971 2 0 ack 40 ------- 0 3.0 0.0 0 11
+ 0.74971 0 2 tcp 1040 ------- 0 0.0 3.0 1 12
- 0.74971 0 2 tcp 1040 ------- 0 0.0 3.0 1 12
r 0.7528 2 3 tcp 1040 ------- 0 1.0 3.1 3 7
+ 0.7528 3 2 ack 40 ------- 0 3.1 1.0 3 13
- 0.7528 3 2 ack 40 ------- 0 3.1 1.0 3 13
- 0.7636 2 3 tcp 1040 ------- 0 1.0 3.1 5 9
r 0.7636 3 2 ack 40 ------- 0 3.1 1.0 3 13
+ 0.7636 2 1 ack 40 ------- 0 3.1 1.0 3 13
- 0.7636 2 1 ack 40 ------- 0 3.1 1.0 3 13
r 0.76387 0 2 tcp 1040 ------- 0 0.0 3.0 1 12
+ 0.76387 2 3 tcp 1040 ------- 0 0.0 3.0 1 12
r 0.7736 2 3 tcp 1040 ------- 0 1.0 3.1 4 8
+ 0.7736 3 2 ack 40 ------- 0 3.1 1.0 4 14
- 0.7736 3 2 ack 40 ------- 0 3.1 1.0 4 14
r 0.77376 2 1 ack 40 ------- 0 3.1 1.0 3 13
+ 0.77376 1 2 tcp 1040 ------- 0 1.0 3.1 7 15
- 0.77376 1 2 tcp 1040 ------- 0 1.0 3.1 7 15
+ 0.77376 1 2 tcp 1040 ------- 0 1.0 3.1 8 16
- 0.77792 1 2 tcp 1040 ------- 0 1.0 3.1 8 16
- 0.7844 2 3 tcp 1040 ------- 0 1.0 3.1 6 10
r 0.7844 3 2 ack 40 ------- 0 3.1 1.0 4 14
+ 0.7844 2 1 ack 40 ------- 0 3.1 1.0 4 14
- 0.7844 2 1 ack 40 ------- 0 3.1 1.0 4 14
r 0.78792 1 2 tcp 1040 ------- 0 1.0 3.1 7 15
+ 0.78792 2 3 tcp 1040 ------- 0 1.0 3.1 7 15
r 0.79208 1 2 tcp 1040 ------- 0 1.0 3.1 8 16
+ 0.79208 2 3 tcp 1040 ------- 0 1.0 3.1 8 16
r 0.7944 2 3 tcp 1040 ------- 0 1.0 3.1 5 9
+ 0.7944 3 2 ack 40 ------- 0 3.1 1.0 5 17
- 0.7944 3 2 ack 40 ------- 0 3.1 1.0 5 17
r 0.79456 2 1 ack 40 ------- 0 3.1 1.0 4 14
+ 0.79456 1 2 tcp 1040 ------- 0 1.0 3.1 9 18
- 0.79456 1 2 tcp 1040 ------- 0 1.0 3.1 9 18
+ 0.79456 1 2 tcp 1040 ------- 0 1.0 3.1 10 19
- 0.79872 1 2 tcp 1040 ------- 0 1.0 3.1 10 19
- 0.8052 2 3 tcp 1040 ------- 0 0.0 3.0 1 12
r 0.8052 3 2 ack 40 ------- 0 3.1 1.0 5 17
+ 0.8052 2 1 ack 40 ------- 0 3.1 1.0 5 17
- 0.8052 2 1 ack 40 ------- 0 3.1 1.0 5 17
r 0.80872 1 2 tcp 1040 ------- 0 1.0 3.1 9 18
+ 0.80872 2 3 tcp 1040 ------- 0 1.0 3.1 9 18
r 0.81288 1 2 tcp 1040 ------- 0 1.0 3.1 10 19
+ 0.81288 2 3 tcp 1040 ------- 0 1.0 3.1 10 19
r 0.8152 2 3 tcp 1040 ------- 0 1.0 3.1 6 10
+ 0.8152 3 2 ack 40 ------- 0 3.1 1.0 6 20
- 0.8152 3 2 ack 40 ------- 0 3.1 1.0 6 20
r 0.81536 2 1 ack 40 ------- 0 3.1 1.0 5 17
+ 0.81536 1 2 tcp 1040 ------- 0 1.0 3.1 11 21
- 0.81536 1 2 tcp 1040 ------- 0 1.0 3.1 11 21
+ 0.81536 1 2 tcp 1040 ------- 0 1.0 3.1 12 22
- 0.81952 1 2 tcp 1040 ------- 0 1.0 3.1 12 22
- 0.826 2 3 tcp 1040 ------- 0 1.0 3.1 7 15
r 0.826 3 2 ack 40 ------- 0 3.1 1.0 6 20
+ 0.826 2 1 ack 40 ------- 0 3.1 1.0 6 20
- 0.826 2 1 ack 40 ------- 0 3.1 1.0 6 20
r 0.82952 1 2 tcp 1040 ------- 0 1.0 3.1 11 21
+ 0.82952 2 3 tcp 1040 ------- 0 1.0 3.1 11 21
r 0.83368 1 2 tcp 1040 ------- 0 1.0 3.1 12 22
+ 0.83368 2 3 tcp 1040 ------- 0 1.0 3.1 12 22
r 0.836 2 3 tcp 1040 ------- 0 0.0 3.0 1 12
+ 0.836 3 2 ack 40 ------- 0 3.0 0.0 1 23
- 0.836 3 2 ack 40 ------- 0 3.0 0.0 1 23
r 0.83616 2 1 ack 40 ------- 0 3.1 1.0 6 20
+ 0.83616 1 2 tcp 1040 ------- 0 1.0 3.1 13 24
- 0.83616 1 2 tcp 1040 ------- 0 1.0 3.1 13 24
+ 0.83616 1 2 tcp 1040 ------- 0 1.0 3.1 14 25
- 0.84032 1 2 tcp 1040 ------- 0 1.0 3.1 14 25
- 0.8468 2 3 tcp 1040 ------- 0 1.0 3.1 8 16
r 0.8468 3 2 ack 40 ------- 0 3.0 0.0 1 23
+ 0.8468 2 0 ack 40 ------- 0 3.0 0.0 1 23
- 0.8468 2 0 ack 40 ------- 0 3.0 0.0 1 23
r 0.85032 1 2 tcp 1040 ------- 0 1.0 3.1 13 24
+ 0.85032 2 3 tcp 1040 ------- 0 1.0 3.1 13 24
r 0.85448 1 2 tcp 1040 ------- 0 1.0 3.1 14 25
+ 0.85448 2 3 tcp 1040 ------- 0 1.0 3.1 14 25
r 0.8568 2 3 tcp 1040 ------- 0 1.0 3.1 7 15
+ 0.8568 3 2 ack 40 ------- 0 3.1 1.0 7 26
- 0.8568 3 2 ack 40 ------- 0 3.1 1.0 7 26
r 0.85696 2 0 ack 40 ------- 0 3.0 0.0 1 23
- 0.8676 2 3 tcp 1040 ------- 0 1.0 3.1 9 18
r 0.8676 3 2 ack 40 ------- 0 3.1 1.0 7 26
+ 0.8676 2 1 ack 40 ------- 0 3.1 1.0 7 26
- 0.8676 2 1 ack 40 ------- 0 3.1 1.0 7 26
r 0.8776 2 3 tcp 1040 ------- 0 1.0 3.1 8 16
+ 0.8776 3 2 ack 40 ------- 0 3.1 1.0 8 27
- 0.8776 3 2 ack 40 ------- 0 3.1 1.0 8 27
r 0.87776 2 1 ack 40 ------- 0 3.1 1.0 7 26
+ 0.87776 1 2 tcp 1040 ------- 0 1.0 3.1 15 28
- 0.87776 1 2 tcp 1040 ------- 0 1.0 3.1 15 28
+ 0.87776 1 2 tcp 1040 ------- 0 1.0 3.1 16 29
- 0.88192 1 2 tcp 1040 ------- 0 1.0 3.1 16 29
- 0.8884 2 3 tcp 1040 ------- 0 1.0 3.1 10 19
r 0.8884 3 2 ack 40 ------- 0 3.1 1.0 8 27
+ 0.8884 2 1 ack 40 ------- 0 3.1 1.0 8 27
- 0.8884 2 1 ack 40 ------- 0 3.1 1.0 8 27
r 0.89192 1 2 tcp 1040 ------- 0 1.0 3.1 15 28
+ 0.89192 2 3 tcp 1040 ------- 0 1.0 3.1 15 28
r 0.89608 1 2 tcp 1040 ------- 0 1.0 3.1 16 29
+ 0.89608 2 3 tcp 1040 ------- 0 1.0 3.1 16 29
r 0.8984 2 3 tcp 1040 ------- 0 1.0 3.1 9 18
+ 0.8984 3 2 ack 40 ------- 0 3.1 1.0 9 30
- 0.8984 3 2 ack 40 ------- 0 3.1 1.0 9 30
r 0.89856 2 1 ack 40 ------- 0 3.1 1.0 8 27
+ 0.89856 1 2 tcp 1040 ------- 0 1.0 3.1 17 31
- 0.89856 1 2 tcp 1040 ------- 0 1.0 3.1 17 31
+ 0.89856 1 2 tcp 1040 ------- 0 1.0 3.1 18 32
- 0.90272 1 2 tcp 1040 ------- 0 1.0 3.1 18 32
- 0.9092 2 3 tcp 1040 ------- 0 1.0 3.1 11 21
r 0.9092 3 2 ack 40 ------- 0 3.1 1.0 9 30
+ 0.9092 2 1 ack 40 ------- 0 3.1 1.0 9 30
- 0.9092 2 1 ack 40 ------- 0 3.1 1.0 9 30
r 0.91272 1 2 tcp 1040 ------- 0 1.0 3.1 17 31
+ 0.91272 2 3 tcp 1040 ------- 0 1.0 3.1 17 31
r 0.91688 1 2 tcp 1040 ------- 0 1.0 3.1 18 32
+ 0.91688 2 3 tcp 1040 ------- 0 1.0 3.1 18 32
r 0.9192 2 3 tcp 1040 ------- 0 1.0 3.1 10 19
+ 0.9192 3 2 ack 40 ------- 0 3.1 1.0 10 33
- 0.9192 3 2 ack 40 ------- 0 3.1 1.0 10 33
r 0.91936 2 1 ack 40 ------- 0 3.1 1.0 9 30
+ 0.91936 1 2 tcp 1040 ------- 0 1.0 3.1 19 34
- 0.91936 1 2 tcp 1040 ------- 0 1.0 3.1 19 34
+ 0.91936 1 2 tcp 1040 ------- 0 1.0 3.1 20 35
- 0.92352 1 2 tcp 1040 ------- 0 1.0 3.1 20 35
- 0.93 2 3 tcp 1040 ------- 0 1.0 3.1 12 22
r 0.93 3 2 ack 40 ------- 0 3.1 1.0 10 33
+ 0.93 2 1 ack 40 ------- 0 3.1 1.0 10 33
- 0.93 2 1 ack 40 ------- 0 3.1 1.0 10 33
r 0.93352 1 2 tcp 1040 ------- 0 1.0 3.1 19 34
+ 0.93352 2 3 tcp 1040 ------- 0 1.0 3.1 19 34
r 0.93768 1 2 tcp 1040 ------- 0 1.0 3.1 20 35
+ 0.93768 2 3 tcp 1040 ------- 0 1.0 3.1 20 35
r 0.94 2 3 tcp 1040 ------- 0 1.0 3.1 11 21
+ 0.94 3 2 ack 40 ------- 0 3.1 1.0 11 36
- 0.94 3 2 ack 40 ------- 0 3.1 1.0 11 36
r 0.94016 2 1 ack 40 ------- 0 3.1 1.0 10 33
+ 0.94016 1 2 tcp 1040 ------- 0 1.0 3.1 21 37
- 0.94016 1 2 tcp 1040 ------- 0 1.0 3.1 21 37
+ 0.94016 1 2 tcp 1040 ------- 0 1.0 3.1 22 38
- 0.94432 1 2 tcp 1040 ------- 0 1.0 3.1 22 38
- 0.9508 2 3 tcp 1040 ------- 0 1.0 3.1 13 24
r 0.9508 3 2 ack 40 ------- 0 3.1 1.0 11 36
+ 0.9508 2 1 ack 40 ------- 0 3.1 1.0 11 36
- 0.9508 2 1 ack 40 ------- 0 3.1 1.0 11 36
r 0.95432 1 2 tcp 1040 ------- 0 1.0 3.1 21 37
+ 0.95432 2 3 tcp 1040 ------- 0 1.0 3.1 21 37
r 0.95848 1 2 tcp 1040 ------- 0 1.0 3.1 22 38
+ 0.95848 2 3 tcp 1040 ------- 0 1.0 3.1 22 38
r 0.9608 2 3 tcp 1040 ------- 0 1.0 3.1 12 22
+ 0.9608 3 2 ack 40 ------- 0 3.1 1.0 12 39
- 0.9608 3 2 ack 40 ------- 0 3.1 1.0 12 39
r 0.96096 2 1 ack 40 ------- 0 3.1 1.0 11 36
+ 0.96096 1 2 tcp 1040 ------- 0 1.0 3.1 23 40
- 0.96096 1 2 tcp 1040 ------- 0 1.0 3.1 23 40
+ 0.96096 1 2 tcp 1040 ------- 0 1.0 3.1 24 41
- 0.96512 1 2 tcp 1040 ------- 0 1.0 3.1 24 41
- 0.9716 2 3 tcp 1040 ------- 0 1.0 3.1 14 25
r 0.9716 3 2 ack 40 ------- 0 3.1 1.0 12 39
+ 0.9716 2 1 ack 40 ------- 0 3.1 1.0 12 39
- 0.9716 2 1 ack 40 ------- 0 3.1 1.0 12 39
r 0.97512 1 2 tcp 1040 ------- 0 1.0 3.1 23 40
+ 0.97512 2 3 tcp 1040 ------- 0 1.0 3.1 23 40
r 0.97928 1 2 tcp 1040 ------- 0 1.0 3.1 24 41
+ 0.97928 2 3 tcp 1040 ------- 0 1.0 3.1 24 41
r 0.9816 2 3 tcp 1040 ------- 0 1.0 3.1 13 24
+ 0.9816 3 2 ack 40 ------- 0 3.1 1.0 13 42
- 0.9816 3 2 ack 40 ------- 0 3.1 1.0 13 42
r 0.98176 2 1 ack 40 ------- 0 3.1 1.0 12 39
+ 0.98176 1 2 tcp 1040 ------- 0 1.0 3.1 25 43
- 0.98176 1 2 tcp 1040 ------- 0 1.0 3.1 25 43
+ 0.98176 1 2 tcp 1040 ------- 0 1.0 3.1 26 44
- 0.98592 1 2 tcp 1040 ------- 0 1.0 3.1 26 44
- 0.9924 2 3 tcp 1040 ------- 0 1.0 3.1 15 28
r 0.9924 3 2 ack 40 ------- 0 3.1 1.0 13 42
+ 0.9924 2 1 ack 40 ------- 0 3.1 1.0 13 42
- 0.9924 2 1 ack 40 ------- 0 3.1 1.0 13 42
r 0.99592 1 2 tcp 1040 ------- 0 1.0 3.1 25 43
+ 0.99592 2 3 tcp 1040 ------- 0 1.0 3.1 25 43
r 1.00008 1 2 tcp 1040 ------- 0 1.0 3.1 26 44
+ 1.00008 2 3 tcp 1040 ------- 0 1.0 3.1 26 44
r 1.0024 2 3 tcp 1040 ------- 0 1.0 3.1 14 25
+ 1.0024 3 2 ack 40 ------- 0 3.1 1.0 14 45
- 1.0024 3 2 ack 40 ------- 0 3.1 1.0 14 45
r 1.00256 2 1 ack 40 ------- 0 3.1 1.0 13 42
+ 1.00256 1 2 tcp 1040 ------- 0 1.0 3.1 27 46
- 1.00256 1 2 tcp 1040 ------- 0 1.0 3.1 27 46
+ 1.00256 1 2 tcp 1040 ------- 0 1.0 3.1 28 47
- 1.00672 1 2 tcp 1040 ------- 0 1.0 3.1 28 47
- 1.0132 2 3 tcp 1040 ------- 0 1.0 3.1 16 29
r 1.0132 3 2 ack 40 ------- 0 3.1 1.0 14 45
+ 1.0132 2 1 ack 40 ------- 0 3.1 1.0 14 45
- 1.0132 2 1 ack 40 ------- 0 3.1 1.0 14 45
r 1.01672 1 2 tcp 1040 ------- 0 1.0 3.1 27 46
+ 1.01672 2 3 tcp 1040 ------- 0 1.0 3.1 27 46
r 1.02088 1 2 tcp 1040 ------- 0 1.0 3.1 28 47
+ 1.02088 2 3 tcp 1040 ------- 0 1.0 3.1 28 47
r 1.0232 2 3 tcp 1040 ------- 0 1.0 3.1 15 28
+ 1.0232 3 2 ack 40 ------- 0 3.1 1.0 15 48
- 1.0232 3 2 ack 40 ------- 0 3.1 1.0 15 48
r 1.02336 2 1 ack 40 ------- 0 3.1 1.0 14 45
+ 1.02336 1 2 tcp 1040 ------- 0 1.0 3.1 29 49
- 1.02336 1 2 tcp 1040 ------- 0 1.0 3.1 29 49
+ 1.02336 1 2 tcp 1040 ------- 0 1.0 3.1 30 50
- 1.02752 1 2 tcp 1040 ------- 0 1.0 3.1 30 50
- 1.034 2 3 tcp 1040 ------- 0 1.0 3.1 17 31
r 1.034 3 2 ack 40 ------- 0 3.1 1.0 15 48
+ 1.034 2 1 ack 40 ------- 0 3.1 1.0 15 48
- 1.034 2 1 ack 40 ------- 0 3.1 1.0 15 48
r 1.03752 1 2 tcp 1040 ------- 0 1.0 3.1 29 49
+ 1.03752 2 3 tcp 1040 ------- 0 1.0 3.1 29 49
r 1.04168 1 2 tcp 1040 ------- 0 1.0 3.1 30 50
+ 1.04168 2 3 tcp 1040 ------- 0 1.0 3.1 30 50
r 1.044 2 3 tcp 1040 ------- 0 1.0 3.1 16 29
+ 1.044 3 2 ack 40 ------- 0 3.1 1.0 16 51
- 1.044 3 2 ack 40 ------- 0 3.1 1.0 16 51
r 1.04416 2 1 ack 40 ------- 0 3.1 1.0 15 48
+ 1.04416 1 2 tcp 1040 ------- 0 1.0 3.1 31 52
- 1.04416 1 2 tcp 1040 ------- 0 1.0 3.1 31 52
+ 1.04416 1 2 tcp 1040 ------- 0 1.0 3.1 32 53
- 1.04832 1 2 tcp 1040 ------- 0 1.0 3.1 32 53
- 1.0548 2 3 tcp 1040 ------- 0 1.0 3.1 18 32
r 1.0548 3 2 ack 40 ------- 0 3.1 1.0 16 51
+ 1.0548 2 1 ack 40 ------- 0 3.1 1.0 16 51
- 1.0548 2 1 ack 40 ------- 0 3.1 1.0 16 51
r 1.05832 1 2 tcp 1040 ------- 0 1.0 3.1 31 52
+ 1.05832 2 3 tcp 1040 ------- 0 1.0 3.1 31 52
r 1.06248 1 2 tcp 1040 ------- 0 1.0 3.1 32 53
+ 1.06248 2 3 tcp 1040 ------- 0 1.0 3.1 32 53
r 1.0648 2 3 tcp 1040 ------- 0 1.0 3.1 17 31
+ 1.0648 3 2 ack 40 ------- 0 3.1 1.0 17 54
- 1.0648 3 2 ack 40 ------- 0 3.1 1.0 17 54
r 1.06496 2 1 ack 40 ------- 0 3.1 1.0 16 51
+ 1.06496 1 2 tcp 1040 ------- 0 1.0 3.1 33 55
- 1.06496 1 2 tcp 1040 ------- 0 1.0 3.1 33 55
+ 1.06496 1 2 tcp 1040 ------- 0 1.0 3.1 34 56
- 1.06912 1 2 tcp 1040 ------- 0 1.0 3.1 34 56
- 1.0756 2 3 tcp 1040 ------- 0 1.0 3.1 19 34
r 1.0756 3 2 ack 40 ------- 0 3.1 1.0 17 54
+ 1.0756 2 1 ack 40 ------- 0 3.1 1.0 17 54
- 1.0756 2 1 ack 40 ------- 0 3.1 1.0 17 54
r 1.07912 1 2 tcp 1040 ------- 0 1.0 3.1 33 55
+ 1.07912 2 3 tcp 1040 ------- 0 1.0 3.1 33 55
r 1.08328 1 2 tcp 1040 ------- 0 1.0 3.1 34 56
+ 1.08328 2 3 tcp 1040 ------- 0 1.0 3.1 34 56
r 1.0856 2 3 tcp 1040 ------- 0 1.0 3.1 18 32
+ 1.0856 3 2 ack 40 ------- 0 3.1 1.0 18 57
- 1.0856 3 2 ack 40 ------- 0 3.1 1.0 18 57
r 1.08576 2 1 ack 40 ------- 0 3.1 1.0 17 54
+ 1.08576 1 2 tcp 1040 ------- 0 1.0 3.1 35 58
- 1.08576 1 2 tcp 1040 ------- 0 1.0 3.1 35 58
+ 1.08576 1 2 tcp 1040 ------- 0 1.0 3.1 36 59
- 1.08992 1 2 tcp 1040 ------- 0 1.0 3.1 36 59
- 1.0964 2 3 tcp 1040 ------- 0 1.0 3.1 20 35
r 1.0964 3 2 ack 40 ------- 0 3.1 1.0 18 57
+ 1.0964 2 1 ack 40 ------- 0 3.1 1.0 18 57
- 1.0964 2 1 ack 40 ------- 0 3.1 1.0 18 57
r 1.09992 1 2 tcp 1040 ------- 0 1.0 3.1 35 58
+ 1.09992 2 3 tcp 1040 ------- 0 1.0 3.1 35 58
r 1.10408 1 2 tcp 1040 ------- 0 1.0 3.1 36 59
+ 1.10408 2 3 tcp 1040 ------- 0 1.0 3.1 36 59
r 1.1064 2 3 tcp 1040 ------- 0 1.0 3.1 19 34
+ 1.1064 3 2 ack 40 ------- 0 3.1 1.0 19 60
- 1.1064 3 2 ack 40 ------- 0 3.1 1.0 19 60
r 1.10656 2 1 ack 40 ------- 0 3.1 1.0 18 57
+ 1.10656 1 2 tcp 1040 ------- 0 1.0 3.1 37 61
- 1.10656 1 2 tcp 1040 ------- 0 1.0 3.1 37 61
+ 1.10656 1 2 tcp 1040 ------- 0 1.0 3.1 38 62
- 1.11072 1 2 tcp 1040 ------- 0 1.0 3.1 38 62
- 1.1172 2 3 tcp 1040 ------- 0 1.0 3.1 21 37
r 1.1172 3 2 ack 40 ------- 0 3.1 1.0 19 60
+ 1.1172 2 1 ack 40 ------- 0 3.1 1.0 19 60
- 1.1172 2 1 ack 40 ------- 0 3.1 1.0 19 60
r 1.12072 1 2 tcp 1040 ------- 0 1.0 3.1 37 61
+ 1.12072 2 3 tcp 1040 ------- 0 1.0 3.1 37 61
r 1.12488 1 2 tcp 1040 ------- 0 1.0 3.1 38 62
+ 1.12488 2 3 tcp 1040 ------- 0 1.0 3.1 38 62
r 1.1272 2 3 tcp 1040 ------- 0 1.0 3.1 20 35
+ 1.1272 3 2 ack 40 ------- 0 3.1 1.0 20 63
- 1.1272 3 2 ack 40 ------- 0 3.1 1.0 20 63
r 1.12736 2 1 ack 40 ------- 0 3.1 1.0 19 60
+ 1.12736 1 2 tcp 1040 ------- 0 1.0 3.1 39 64
- 1.12736 1 2 tcp 1040 ------- 0 1.0 3.1 39 64
- 1.138 2 3 tcp 1040 ------- 0 1.0 3.1 22 38
r 1.138 3 2 ack 40 ------- 0 3.1 1.0 20 63
+ 1.138 2 1 ack 40 ------- 0 3.1 1.0 20 63
- 1.138 2 1 ack 40 ------- 0 3.1 1.0 20 63
r 1.14152 1 2 tcp 1040 ------- 0 1.0 3.1 39 64
+ 1.14152 2 3 tcp 1040 ------- 0 1.0 3.1 39 64
r 1.148 2 3 tcp 1040 ------- 0 1.0 3.1 21 37
+ 1.148 3 2 ack 40 ------- 0 3.1 1.0 21 65
- 1.148 3 2 ack 40 ------- 0 3.1 1.0 21 65
r 1.14816 2 1 ack 40 ------- 0 3.1 1.0 20 63
+ 1.14816 1 2 tcp 1040 ------- 0 1.0 3.1 40 66
- 1.14816 1 2 tcp 1040 ------- 0 1.0 3.1 40 66
- 1.1588 2 3 tcp 1040 ------- 0 1.0 3.1 23 40
r 1.1588 3 2 ack 40 ------- 0 3.1 1.0 21 65
+ 1.1588 2 1 ack 40 ------- 0 3.1 1.0 21 65
- 1.1588 2 1 ack 40 ------- 0 3.1 1.0 21 65
r 1.16232 1 2 tcp 1040 ------- 0 1.0 3.1 40 66
+ 1.16232 2 3 tcp 1040 ------- 0 1.0 3.1 40 66
r 1.1688 2 3 tcp 1040 ------- 0 1.0 3.1 22 38
+ 1.1688 3 2 ack 40 ------- 0 3.1 1.0 22 67
- 1.1688 3 2 ack 40 ------- 0 3.1 1.0 22 67
r 1.16896 2 1 ack 40 ------- 0 3.1 1.0 21 65
+ 1.16896 1 2 tcp 1040 ------- 0 1.0 3.1 41 68
- 1.16896 1 2 tcp 1040 ------- 0 1.0 3.1 41 68
- 1.1796 2 3 tcp 1040 ------- 0 1.0 3.1 24 41
r 1.1796 3 2 ack 40 ------- 0 3.1 1.0 22 67
+ 1.1796 2 1 ack 40 ------- 0 3.1 1.0 22 67
- 1.1796 2 1 ack 40 ------- 0 3.1 1.0 22 67
r 1.18312 1 2 tcp 1040 ------- 0 1.0 3.1 41 68
+ 1.18312 2 3 tcp 1040 ------- 0 1.0 3.1 41 68
r 1.1896 2 3 tcp 1040 ------- 0 1.0 3.1 23 40
+ 1.1896 3 2 ack 40 ------- 0 3.1 1.0 23 69
- 1.1896 3 2 ack 40 ------- 0 3.1 1.0 23 69
r 1.18976 2 1 ack 40 ------- 0 3.1 1.0 22 67
+ 1.18976 1 2 tcp 1040 ------- 0 1.0 3.1 42 70
- 1.18976 1 2 tcp 1040 ------- 0 1.0 3.1 42 70
- 1.2004 2 3 tcp 1040 ------- 0 1.0 3.1 25 43
r 1.2004 3 2 ack 40 ------- 0 3.1 1.0 23 69
+ 1.2004 2 1 ack 40 ------- 0 3.1 1.0 23 69
- 1.2004 2 1 ack 40 ------- 0 3.1 1.0 23 69
r 1.20392 1 2 tcp 1040 ------- 0 1.0 3.1 42 70
+ 1.20392 2 3 tcp 1040 ------- 0 1.0 3.1 42 70
r 1.2104 2 3 tcp 1040 ------- 0 1.0 3.1 24 41
+ 1.2104 3 2 ack 40 ------- 0 3.1 1.0 24 71
- 1.2104 3 2 ack 40 ------- 0 3.1 1.0 24 71
r 1.21056 2 1 ack 40 ------- 0 3.1 1.0 23 69
+ 1.21056 1 2 tcp 1040 ------- 0 1.0 3.1 43 72
- 1.21056 1 2 tcp 1040 ------- 0 1.0 3.1 43 72
- 1.2212 2 3 tcp 1040 ------- 0 1.0 3.1 26 44
r 1.2212 3 2 ack 40 ------- 0 3.1 1.0 24 71
+ 1.2212 2 1 ack 40 ------- 0 3.1 1.0 24 71
- 1.2212 2 1 ack 40 ------- 0 3.1 1.0 24 71
r 1.22472 1 2 tcp 1040 ------- 0 1.0 3.1 43 72
+ 1.22472 2 3 tcp 1040 ------- 0 1.0 3.1 43 72
r 1.2312 2 3 tcp 1040 ------- 0 1.0 3.1 25 43
+ 1.2312 3 2 ack 40 ------- 0 3.1 1.0 25 73
- 1.2312 3 2 ack 40 ------- 0 3.1 1.0 25 73
r 1.23136 2 1 ack 40 ------- 0 3.1 1.0 24 71
+ 1.23136 1 2 tcp 1040 ------- 0 1.0 3.1 44 74
- 1.23136 1 2 tcp 1040 ------- 0 1.0 3.1 44 74
- 1.242 2 3 tcp 1040 ------- 0 1.0 3.1 27 46
r 1.242 3 2 ack 40 ------- 0 3.1 1.0 25 73
+ 1.242 2 1 ack 40 ------- 0 3.1 1.0 25 73
- 1.242 2 1 ack 40 ------- 0 3.1 1.0 25 73
r 1.24552 1 2 tcp 1040 ------- 0 1.0 3.1 44 74
+ 1.24552 2 3 tcp 1040 ------- 0 1.0 3.1 44 74
r 1.252 2 3 tcp 1040 ------- 0 1.0 3.1 26 44
+ 1.252 3 2 ack 40 ------- 0 3.1 1.0 26 75
- 1.252 3 2 ack 40 ------- 0 3.1 1.0 26 75
r 1.25216 2 1 ack 40 ------- 0 3.1 1.0 25 73
+ 1.25216 1 2 tcp 1040 ------- 0 1.0 3.1 45 76
- 1.25216 1 2 tcp 1040 ------- 0 1.0 3.1 45 76
- 1.2628 2 3 tcp 1040 ------- 0 1.0 3.1 28 47
r 1.2628 3 2 ack 40 ------- 0 3.1 1.0 26 75
+ 1.2628 2 1 ack 40 ------- 0 3.1 1.0 26 75
- 1.2628 2 1 ack 40 ------- 0 3.1 1.0 26 75
r 1.26632 1 2 tcp 1040 ------- 0 1.0 3.1 45 76
+ 1.26632 2 3 tcp 1040 ------- 0 1.0 3.1 45 76
r 1.2728 2 3 tcp 1040 ------- 0 1.0 3.1 27 46
+ 1.2728 3 2 ack 40 ------- 0 3.1 1.0 27 77
- 1.2728 3 2 ack 40 ------- 0 3.1 1.0 27 77
r 1.27296 2 1 ack 40 ------- 0 3.1 1.0 26 75
+ 1.27296 1 2 tcp 1040 ------- 0 1.0 3.1 46 78
- 1.27296 1 2 tcp 1040 ------- 0 1.0 3.1 46 78
- 1.2836 2 3 tcp 1040 ------- 0 1.0 3.1 29 49
r 1.2836 3 2 ack 40 ------- 0 3.1 1.0 27 77
+ 1.2836 2 1 ack 40 ------- 0 3.1 1.0 27 77
- 1.2836 2 1 ack 40 ------- 0 3.1 1.0 27 77
r 1.28712 1 2 tcp 1040 ------- 0 1.0 3.1 46 78
+ 1.28712 2 3 tcp 1040 ------- 0 1.0 3.1 46 78
r 1.2936 2 3 tcp 1040 ------- 0 1.0 3.1 28 47
+ 1.2936 3 2 ack 40 ------- 0 3.1 1.0 28 79
- 1.2936 3 2 ack 40 ------- 0 3.1 1.0 28 79
r 1.29376 2 1 ack 40 ------- 0 3.1 1.0 27 77
+ 1.29376 1 2 tcp 1040 ------- 0 1.0 3.1 47 80
- 1.29376 1 2 tcp 1040 ------- 0 1.0 3.1 47 80
- 1.3044 2 3 tcp 1040 ------- 0 1.0 3.1 30 50
r 1.3044 3 2 ack 40 ------- 0 3.1 1.0 28 79
+ 1.3044 2 1 ack 40 ------- 0 3.1 1.0 28 79
- 1.3044 2 1 ack 40 ------- 0 3.1 1.0 28 79
r 1.30792 1 2 tcp 1040 ------- 0 1.0 3.1 47 80
+ 1.30792 2 3 tcp 1040 ------- 0 1.0 3.1 47 80
r 1.3144 2 3 tcp 1040 ------- 0 1.0 3.1 29 49
+ 1.3144 3 2 ack 40 ------- 0 3.1 1.0 29 81
- 1.3144 3 2 ack 40 ------- 0 3.1 1.0 29 81
r 1.31456 2 1 ack 40 ------- 0 3.1 1.0 28 79
+ 1.31456 1 2 tcp 1040 ------- 0 1.0 3.1 48 82
- 1.31456 1 2 tcp 1040 ------- 0 1.0 3.1 48 82
- 1.3252 2 3 tcp 1040 ------- 0 1.0 3.1 31 52
r 1.3252 3 2 ack 40 ------- 0 3.1 1.0 29 81
+ 1.3252 2 1 ack 40 ------- 0 3.1 1.0 29 81
- 1.3252 2 1 ack 40 ------- 0 3.1 1.0 29 81
r 1.32872 1 2 tcp 1040 ------- 0 1.0 3.1 48 82
+ 1.32872 2 3 tcp 1040 ------- 0 1.0 3.1 48 82
r 1.3352 2 3 tcp 1040 ------- 0 1.0 3.1 30 50
+ 1.3352 3 2 ack 40 ------- 0 3.1 1.0 30 83
- 1.3352 3 2 ack 40 ------- 0 3.1 1.0 30 83
r 1.33536 2 1 ack 40 ------- 0 3.1 1.0 29 81
+ 1.33536 1 2 tcp 1040 ------- 0 1.0 3.1 49 84
- 1.33536 1 2 tcp 1040 ------- 0 1.0 3.1 49 84
- 1.346 2 3 tcp 1040 ------- 0 1.0 3.1 32 53
r 1.346 3 2 ack 40 ------- 0 3.1 1.0 30 83
+ 1.346 2 1 ack 40 ------- 0 3.1 1.0 30 83
- 1.346 2 1 ack 40 ------- 0 3.1 1.0 30 83
r 1.34952 1 2 tcp 1040 ------- 0 1.0 3.1 49 84
+ 1.34952 2 3 tcp 1040 ------- 0 1.0 3.1 49 84
r 1.356 2 3 tcp 1040 ------- 0 1.0 3.1 31 52
+ 1.356 3 2 ack 40 ------- 0 3.1 1.0 31 85
- 1.356 3 2 ack 40 ------- 0 3.1 1.0 31 85
r 1.35616 2 1 ack 40 ------- 0 3.1 1.0 30 83
+ 1.35616 1 2 tcp 1040 ------- 0 1.0 3.1 50 86
- 1.35616 1 2 tcp 1040 ------- 0 1.0 3.1 50 86
- 1.3668 2 3 tcp 1040 ------- 0 1.0 3.1 33 55
r 1.3668 3 2 ack 40 ------- 0 3.1 1.0 31 85
+ 1.3668 2 1 ack 40 ------- 0 3.1 1.0 31 85
- 1.3668 2 1 ack 40 ------- 0 3.1 1.0 31 85
r 1.37032 1 2 tcp 1040 ------- 0 1.0 3.1 50 86
+ 1.37032 2 3 tcp 1040 ------- 0 1.0 3.1 50 86
r 1.3768 2 3 tcp 1040 ------- 0 1.0 3.1 32 53
+ 1.3768 3 2 ack 40 ------- 0 3.1 1.0 32 87
- 1.3768 3 2 ack 40 ------- 0 3.1 1.0 32 87
r 1.37696 2 1 ack 40 ------- 0 3.1 1.0 31 85
+ 1.37696 1 2 tcp 1040 ------- 0 1.0 3.1 51 88
- 1.37696 1 2 tcp 1040 ------- 0 1.0 3.1 51 88
- 1.3876 2 3 tcp 1040 ------- 0 1.0 3.1 34 56
r 1.3876 3 2 ack 40 ------- 0 3.1 1.0 32 87
+ 1.3876 2 1 ack 40 ------- 0 3.1 1.0 32 87
- 1.3876 2 1 ack 40 ------- 0 3.1 1.0 32 87
r 1.39112 1 2 tcp 1040 ------- 0 1.0 3.1 51 88
+ 1.39112 2 3 tcp 1040 ------- 0 1.0 3.1 51 88
r 1.3976 2 3 tcp 1040 ------- 0 1.0 3.1 33 55
+ 1.3976 3 2 ack 40 ------- 0 3.1 1.0 33 89
- 1.3976 3 2 ack 40 ------- 0 3.1 1.0 33 89
r 1.39776 2 1 ack 40 ------- 0 3.1 1.0 32 87
+ 1.39776 1 2 tcp 1040 ------- 0 1.0 3.1 52 90
- 1.39776 1 2 tcp 1040 ------- 0 1.0 3.1 52 90
- 1.4084 2 3 tcp 1040 ------- 0 1.0 3.1 35 58
r 1.4084 3 2 ack 40 ------- 0 3.1 1.0 33 89
+ 1.4084 2 1 ack 40 ------- 0 3.1 1.0 33 89
- 1.4084 2 1 ack 40 ------- 0 3.1 1.0 33 89
r 1.41192 1 2 tcp 1040 ------- 0 1.0 3.1 52 90
+ 1.41192 2 3 tcp 1040 ------- 0 1.0 3.1 52 90
r 1.4184 2 3 tcp 1040 ------- 0 1.0 3.1 34 56
+ 1.4184 3 2 ack 40 ------- 0 3.1 1.0 34 91
- 1.4184 3 2 ack 40 ------- 0 3.1 1.0 34 91
r 1.41856 2 1 ack 40 ------- 0 3.1 1.0 33 89
+ 1.41856 1 2 tcp 1040 ------- 0 1.0 3.1 53 92
- 1.41856 1 2 tcp 1040 ------- 0 1.0 3.1 53 92
- 1.4292 2 3 tcp 1040 ------- 0 1.0 3.1 36 59
r 1.4292 3 2 ack 40 ------- 0 3.1 1.0 34 91
+ 1.4292 2 1 ack 40 ------- 0 3.1 1.0 34 91
- 1.4292 2 1 ack 40 ------- 0 3.1 1.0 34 91
+ 1.431391 0 2 tcp 1040 ---A--- 0 0.0 3.0 2 93
- 1.431391 0 2 tcp 1040 ---A--- 0 0.0 3.0 2 93
r 1.43272 1 2 tcp 1040 ------- 0 1.0 3.1 53 92
+ 1.43272 2 3 tcp 1040 ------- 0 1.0 3.1 53 92
r 1.4392 2 3 tcp 1040 ------- 0 1.0 3.1 35 58
+ 1.4392 3 2 ack 40 ------- 0 3.1 1.0 35 94
- 1.4392 3 2 ack 40 ------- 0 3.1 1.0 35 94
r 1.43936 2 1 ack 40 ------- 0 3.1 1.0 34 91
+ 1.43936 1 2 tcp 1040 ------- 0 1.0 3.1 54 95
- 1.43936 1 2 tcp 1040 ------- 0 1.0 3.1 54 95
r 1.445551 0 2 tcp 1040 ---A--- 0 0.0 3.0 2 93
+ 1.445551 2 3 tcp 1040 ---A--- 0 0.0 3.0 2 93
- 1.45 2 3 tcp 1040 ------- 0 1.0 3.1 37 61
r 1.45 3 2 ack 40 ------- 0 3.1 1.0 35 94
+ 1.45 2 1 ack 40 ------- 0 3.1 1.0 35 94
- 1.45 2 1 ack 40 ------- 0 3.1 1.0 35 94
r 1.45352 1 2 tcp 1040 ------- 0 1.0 3.1 54 95
+ 1.45352 2 3 tcp 1040 ------- 0 1.0 3.1 54 95
r 1.46 2 3 tcp 1040 ------- 0 1.0 3.1 36 59
+ 1.46 3 2 ack 40 ------- 0 3.1 1.0 36 96
- 1.46 3 2 ack 40 ------- 0 3.1 1.0 36 96
r 1.46016 2 1 ack 40 ------- 0 3.1 1.0 35 94
+ 1.46016 1 2 tcp 1040 ------- 0 1.0 3.1 55 97
- 1.46016 1 2 tcp 1040 ------- 0 1.0 3.1 55 97
- 1.4708 2 3 tcp 1040 ------- 0 1.0 3.1 38 62
r 1.4708 3 2 ack 40 ------- 0 3.1 1.0 36 96
+ 1.4708 2 1 ack 40 ------- 0 3.1 1.0 36 96
- 1.4708 2 1 ack 40 ------- 0 3.1 1.0 36 96
r 1.47432 1 2 tcp 1040 ------- 0 1.0 3.1 55 97
+ 1.47432 2 3 tcp 1040 ------- 0 1.0 3.1 55 97
r 1.4808 2 3 tcp 1040 ------- 0 1.0 3.1 37 61
+ 1.4808 3 2 ack 40 ------- 0 3.1 1.0 37 98
- 1.4808 3 2 ack 40 ------- 0 3.1 1.0 37 98
r 1.48096 2 1 ack 40 ------- 0 3.1 1.0 36 96
+ 1.48096 1 2 tcp 1040 ------- 0 1.0 3.1 56 99
- 1.48096 1 2 tcp 1040 ------- 0 1.0 3.1 56 99
- 1.4916 2 3 tcp 1040 ------- 0 1.0 3.1 39 64
r 1.4916 3 2 ack 40 ------- 0 3.1 1.0 37 98
+ 1.4916 2 1 ack 40 ------- 0 3.1 1.0 37 98
- 1.4916 2 1 ack 40 ------- 0 3.1 1.0 37 98
r 1.49512 1 2 tcp 1040 ------- 0 1.0 3.1 56 99
+ 1.49512 2 3 tcp 1040 ------- 0 1.0 3.1 56 99
r 1.5016 2 3 tcp 1040 ------- 0 1.0 3.1 38 62
+ 1.5016 3 2 ack 40 ------- 0 3.1 1.0 38 100
- 1.5016 3 2 ack 40 ------- 0 3.1 1.0 38 100
r 1.50176 2 1 ack 40 ------- 0 3.1 1.0 37 98
+ 1.50176 1 2 tcp 1040 ------- 0 1.0 3.1 57 101
- 1.50176 1 2 tcp 1040 ------- 0 1.0 3.1 57 101
- 1.5124 2 3 tcp 1040 ------- 0 1.0 3.1 40 66
r 1.5124 3 2 ack 40 ------- 0 3.1 1.0 38 100
+ 1.5124 2 1 ack 40 ------- 0 3.1 1.0 38 100
- 1.5124 2 1 ack 40 ------- 0 3.1 1.0 38 100
r 1.51592 1 2 tcp 1040 ------- 0 1.0 3.1 57 101
+ 1.51592 2 3 tcp 1040 ------- 0 1.0 3.1 57 101
r 1.5224 2 3 tcp 1040 ------- 0 1.0 3.1 39 64
+ 1.5224 3 2 ack 40 ------- 0 3.1 1.0 39 102
- 1.5224 3 2 ack 40 ------- 0 3.1 1.0 39 102
r 1.52256 2 1 ack 40 ------- 0 3.1 1.0 38 100
+ 1.52256 1 2 tcp 1040 ------- 0 1.0 3.1 58 103
- 1.52256 1 2 tcp 1040 ------- 0 1.0 3.1 58 103
- 1.5332 2 3 tcp 1040 ------- 0 1.0 3.1 41 68
r 1.5332 3 2 ack 40 ------- 0 3.1 1.0 39 102
+ 1.5332 2 1 ack 40 ------- 0 3.1 1.0 39 102
- 1.5332 2 1 ack 40 ------- 0 3.1 1.0 39 102
r 1.53672 1 2 tcp 1040 ------- 0 1.0 3.1 58 103
+ 1.53672 2 3 tcp 1040 ------- 0 1.0 3.1 58 103
r 1.5432 2 3 tcp 1040 ------- 0 1.0 3.1 40 66
+ 1.5432 3 2 ack 40 ------- 0 3.1 1.0 40 104
- 1.5432 3 2 ack 40 ------- 0 3.1 1.0 40 104
r 1.54336 2 1 ack 40 ------- 0 3.1 1.0 39 102
+ 1.54336 1 2 tcp 1040 ------- 0 1.0 3.1 59 105
- 1.54336 1 2 tcp 1040 ------- 0 1.0 3.1 59 105
- 1.554 2 3 tcp 1040 ------- 0 1.0 3.1 42 70
r 1.554 3 2 ack 40 ------- 0 3.1 1.0 40 104
+ 1.554 2 1 ack 40 ------- 0 3.1 1.0 40 104
- 1.554 2 1 ack 40 ------- 0 3.1 1.0 40 104
r 1.55752 1 2 tcp 1040 ------- 0 1.0 3.1 59 105
+ 1.55752 2 3 tcp 1040 ------- 0 1.0 3.1 59 105
r 1.564 2 3 tcp 1040 ------- 0 1.0 3.1 41 68
+ 1.564 3 2 ack 40 ------- 0 3.1 1.0 41 106
- 1.564 3 2 ack 40 ------- 0 3.1 1.0 41 106
r 1.56416 2 1 ack 40 ------- 0 3.1 1.0 40 104
+ 1.56416 1 2 tcp 1040 ------- 0 1.0 3.1 60 107
- 1.56416 1 2 tcp 1040 ------- 0 1.0 3.1 60 107
- 1.5748 2 3 tcp 1040 ------- 0 1.0 3.1 43 72
r 1.5748 3 2 ack 40 ------- 0 3.1 1.0 41 106
+ 1.5748 2 1 ack 40 ------- 0 3.1 1.0 41 106
- 1.5748 2 1 ack 40 ------- 0 3.1 1.0 41 106
r 1.57832 1 2 tcp 1040 ------- 0 1.0 3.1 60 107
+ 1.57832 2 3 tcp 1040 ------- 0 1.0 3.1 60 107
r 1.5848 2 3 tcp 1040 ------- 0 1.0 3.1 42 70
+ 1.5848 3 2 ack 40 ------- 0 3.1 1.0 42 108
- 1.5848 3 2 ack 40 ------- 0 3.1 1.0 42 108
r 1.58496 2 1 ack 40 ------- 0 3.1 1.0 41 106
+ 1.58496 1 2 tcp 1040 ------- 0 1.0 3.1 61 109
- 1.58496 1 2 tcp 1040 ------- 0 1.0 3.1 61 109
- 1.5956 2 3 tcp 1040 ------- 0 1.0 3.1 44 74
r 1.5956 3 2 ack 40 ------- 0 3.1 1.0 42 108
+ 1.5956 2 1 ack 40 ------- 0 3.1 1.0 42 108
- 1.5956 2 1 ack 40 ------- 0 3.1 1.0 42 108
r 1.59912 1 2 tcp 1040 ------- 0 1.0 3.1 61 109
+ 1.59912 2 3 tcp 1040 ------- 0 1.0 3.1 61 109
r 1.6056 2 3 tcp 1040 ------- 0 1.0 3.1 43 72
+ 1.6056 3 2 ack 40 ------- 0 3.1 1.0 43 110
- 1.6056 3 2 ack 40 ------- 0 3.1 1.0 43 110
r 1.60576 2 1 ack 40 ------- 0 3.1 1.0 42 108
+ 1.60576 1 2 tcp 1040 ------- 0 1.0 3.1 62 111
- 1.60576 1 2 tcp 1040 ------- 0 1.0 3.1 62 111
- 1.6164 2 3 tcp 1040 ------- 0 1.0 3.1 45 76
r 1.6164 3 2 ack 40 ------- 0 3.1 1.0 43 110
+ 1.6164 2 1 ack 40 ------- 0 3.1 1.0 43 110
- 1.6164 2 1 ack 40 ------- 0 3.1 1.0 43 110
r 1.61992 1 2 tcp 1040 ------- 0 1.0 3.1 62 111
+ 1.61992 2 3 tcp 1040 ------- 0 1.0 3.1 62 111
r 1.6264 2 3 tcp 1040 ------- 0 1.0 3.1 44 74
+ 1.6264 3 2 ack 40 ------- 0 3.1 1.0 44 112
- 1.6264 3 2 ack 40 ------- 0 3.1 1.0 44 112
r 1.62656 2 1 ack 40 ------- 0 3.1 1.0 43 110
+ 1.62656 1 2 tcp 1040 ------- 0 1.0 3.1 63 113
- 1.62656 1 2 tcp 1040 ------- 0 1.0 3.1 63 113
+ 1.631391 0 2 tcp 1040 ---A--- 0 0.0 3.0 2 114
- 1.631391 0 2 tcp 1040 ---A--- 0 0.0 3.0 2 114
- 1.6372 2 3 tcp 1040 ------- 0 1.0 3.1 46 78
r 1.6372 3 2 ack 40 ------- 0 3.1 1.0 44 112
+ 1.6372 2 1 ack 40 ------- 0 3.1 1.0 44 112
- 1.6372 2 1 ack 40 ------- 0 3.1 1.0 44 112
r 1.64072 1 2 tcp 1040 ------- 0 1.0 3.1 63 113
+ 1.64072 2 3 tcp 1040 ------- 0 1.0 3.1 63 113
r 1.645551 0 2 tcp 1040 ---A--- 0 0.0 3.0 2 114
+ 1.645551 2 3 tcp 1040 ---A--- 0 0.0 3.0 2 114
r 1.6472 2 3 tcp 1040 ------- 0 1.0 3.1 45 76
+ 1.6472 3 2 ack 40 ------- 0 3.1 1.0 45 115
- 1.6472 3 2 ack 40 ------- 0 3.1 1.0 45 115
r 1.64736 2 1 ack 40 ------- 0 3.1 1.0 44 112
+ 1.64736 1 2 tcp 1040 ------- 0 1.0 3.1 64 116
- 1.64736 1 2 tcp 1040 ------- 0 1.0 3.1 64 116
- 1.658 2 3 tcp 1040 ------- 0 1.0 3.1 47 80
r 1.658 3 2 ack 40 ------- 0 3.1 1.0 45 115
+ 1.658 2 1 ack 40 ------- 0 3.1 1.0 45 115
- 1.658 2 1 ack 40 ------- 0 3.1 1.0 45 115
r 1.66152 1 2 tcp 1040 ------- 0 1.0 3.1 64 116
+ 1.66152 2 3 tcp 1040 ------- 0 1.0 3.1 64 116
r 1.668 2 3 tcp 1040 ------- 0 1.0 3.1 46 78